# ODT 1.0
# Table Start
# Title: mmArchive Data Table, Tue Apr 25 12:15:23 COT 2017
# Columns: {Oxs_RungeKuttaEvolve:evolve:Total energy} {Oxs_RungeKuttaEvolve:evolve:Energy calc count} {Oxs_RungeKuttaEvolve:evolve:Max dm/dt} Oxs_RungeKuttaEvolve:evolve:dE/dt {Oxs_RungeKuttaEvolve:evolve:Delta E} Oxs_CubicAnisotropy::Energy Oxs_UniformExchange::Energy {Oxs_UniformExchange::Max Spin Ang} {Oxs_UniformExchange::Stage Max Spin Ang} {Oxs_UniformExchange::Run Max Spin Ang} Oxs_ScriptUZeeman::Energy Oxs_ScriptUZeeman::B Oxs_ScriptUZeeman::Bx Oxs_ScriptUZeeman::By Oxs_ScriptUZeeman::Bz Oxs_FixedZeeman::Energy Oxs_Demag::Energy    Oxs_TimeDriver::Iteration {Oxs_TimeDriver::Stage iteration} Oxs_TimeDriver::Stage Oxs_TimeDriver::mx   Oxs_TimeDriver::my   Oxs_TimeDriver::mz   Oxs_TimeDriver::mx_corner Oxs_TimeDriver::my_corner Oxs_TimeDriver::mz_corner {Oxs_TimeDriver::Last time step} {Oxs_TimeDriver::Simulation time}
# Units:                       J                                            {}                                        deg/ns                                 J/s                                  J                                J                           J                              deg                                    deg                                      deg                               J                      mT                   mT                    mT                    mT                      J                    J                       {}                            {}                          {}                   {}                   {}                   {}                      {}                        {}                        {}                            s                                 s                
                      -1.982840890984059e-17                          1                                           4682.9601434686438                  -4.7221478322764939e-08                 0                               -9.7630163029477336e-22         0                               0                                      0                                        0                               -1.2796801199499635e-18     200                  0                     200                   0                     -3.1992002998750553e-17    1.3444250510490219e-17    0                             0                           0                     0.99975009371095891  0.019995001874219157  0.0099975009371095786    0.99975009371095369       0.019995001874219126       0.009997500937109563           0                                0                         
                      -1.9828504557898835e-17                          7                                           4683.0515149086486                  -4.7076636773359009e-08                -9.5648058189881683e-23             -9.7347383159406501e-22         3.7804775225960039e-26             0.0037341414381922696                    0.0037341414381922696                      0.0037341414381922696             -1.2795985979754797e-18     199.999977179681     0                     199.999977179681      0                     -3.1992026168838461e-17    1.3444093644941925e-17    1                             1                           0                     0.99975081777620201  0.01999373037468339  0.0099273702220703062    0.99975110352717478       0.019995479696637928       0.0098949637946867466           2.028631401710671e-15              2.028631401710671e-15       
                      -1.9828884211912311e-17                          13                                          4683.408007302367                   -4.6497296286088168e-08                -3.7965401347895299e-22             -9.6238598717092263e-22         9.4507519658340862e-25             0.018668385964501277                    0.018668385964501277                      0.018668385964501277             -1.2792816201868071e-18     199.99942949280646   0                     199.99942949280646    0                     -3.19921170180881e-17    1.3443475867274569e-17    2                             2                           0                     0.99975365681525274  0.019988832334282055  0.0096468501140885878    0.99975502004698047       0.01999752831397808       0.009484817784949048           8.1145256068426842e-15              1.0143157008553355e-14       
                      -1.9830355818984022e-17                          19                                          4684.6896723379805                  -4.418000167458903e-08                -1.4716070717101683e-21             -9.2160844049508934e-22         1.6667832124321756e-23             0.078366539919259598                    0.078366539919259598                      0.078366539919259598             -1.2781594931252981e-18     199.98993649194665   0                     199.98993649194665    0                     -3.1992451117693358e-17    1.3441159732443005e-17    3                             3                           0                     0.99976409742791794  0.019972247034427151  0.0085248337605660172    0.99976872219524393       0.020007919603569631       0.0078442952720932692           3.2458102427370737e-14              4.2601259435924091e-14       
                      -1.9835489317486636e-17                          25                                          4687.4827966990115                  -3.4889931101441636e-08                -5.1334985026166362e-21             -8.1566710915932198e-22         2.7281068430982847e-22             0.3164304519041049                     0.3164304519041049                       0.3164304519041049              -1.2760022643341512e-18     199.83519112815202   0                     199.83519112815202    0                     -3.1993318967537427e-17    1.343437477080979e-17    4                             4                           0                     0.99979121773554436  0.019953978343519533  0.0040390758352644059    0.99979211789150624       0.020084603030961771       0.0012845054370416063           1.2983240970948295e-13              1.7243366914540703e-13       
                      -1.9843688021158471e-17                          31                                          4671.1421184432938                   3.9722745794665472e-09                -8.1987036718343999e-21             -1.2989885146947118e-21         4.3621626888390176e-21             1.2536626079948876                     1.2536626079948876                       1.2536626079948876              -1.303910673689263e-18     197.36395632008205   0                     197.36395632008205    0                     -3.1989356407906443e-17    1.344651588626309e-17    5                             5                           0                     0.99966738774707664  0.020645719366663994 -0.013785441145327674    0.99938643446016295       0.02095028511610831      -0.024834110632183368           5.1932963883793179e-13              6.9176330798333876e-13       
                      -1.962641519834966e-17                          37                                          4432.3808066526963                   2.3531977609727088e-07                 2.1727282280881483e-19             -1.5241881375055991e-20         6.3509346578120346e-20             4.5813298849955455                     4.5813298849955455                       4.5813298849955455              -1.7923993314600934e-18     162.88129707323756   0                     162.88129707323756    0                     -3.1873898240122898e-17    1.3991614908030265e-17    6                             6                           0                     0.99605932000384068  0.034388527175678509 -0.077093178398592574    0.990914314191223         0.032517909642565575      -0.12041127510528088           2.0293533966493195e-12              2.7211167046326583e-12       
                      -1.871699789639304e-17                          43                                          3716.4271079193568                   5.6212512051867252e-07                 9.0941730195661831e-19             -4.2507267871387553e-20         1.8889422528897469e-19             8.9947146873612098                     8.9947146873612098                       8.9947146873612098              -2.1258449586903518e-18     101.12316214642945   0                     101.12316214642945    0                     -3.164149170373771e-17    1.4903951808617435e-17    7                             7                           0                     0.98879661574180366  0.065694795879579895 -0.12486676741105758    0.97342894435723293       0.058144993482030234      -0.20337599317265975           2.2384359900018425e-12              4.9595526946345012e-12       
                      -1.7326436960859374e-17                          49                                          3087.1942487663864                   6.2835084332211718e-07                 1.3905609355336716e-18             -7.0008047874458464e-20         3.4495307334152928e-19             12.504610539066308                     12.504610539066308                       12.504610539066308              -1.6221419344137077e-18     47.850101701305782   0                     47.850101701305782    0                     -3.1397451311426472e-17    1.5418211259513735e-17    8                             8                           0                     0.98117035348207682  0.10593903387470754 -0.14612469704619527    0.95385076142525282       0.09298549600745161      -0.25926650669386436           2.2227277646758789e-12              7.1822804593103801e-12       
                      -1.6140664747090756e-17                          55                                          2788.7051874893104                   4.0940990537197567e-07                 1.1857722137686116e-18             -9.5082441398687991e-20         5.031528438200818e-19             14.448738800636525                     14.448738800636525                       14.448738800636525              -8.1650947951334877e-19     17.170657372721703   0                     17.170657372721703    0                     -3.1164415978597352e-17    1.5432190308598552e-17    9                             9                           0                     0.97388799933116688  0.14860188914682015 -0.14799297527586477    0.93465938714105823       0.13377677997095902      -0.29547621388024947           2.2277976771953557e-12              9.4100781365057353e-12       
                      -1.551291008459966e-17                          61                                          2839.7622824636369                   1.6669770848632243e-07                 6.2775466249109701e-19             -1.1895248303635672e-19         6.4160694138558013e-19             15.258644704685619                     15.258644704685619                       15.258644704685619              -2.8201671033236158e-19     4.6517311960018413   0                     4.6517311960018413    0                     -3.0930236900133686e-17    1.5176689067517164e-17    10                            10                          0                     0.9665699031291779   0.18945682427783167 -0.13882122072400302    0.91561464618675448       0.17853829512571204      -0.31985669087987456           2.2369047966821929e-12              1.1646982933187929e-11       
                      -1.5302722113724027e-17                          67                                          3046.0630877381195                   3.8338882866566029e-08                 2.1018797087563383e-19             -1.421253045516043e-19         7.4682472650443969e-19             15.68014063972468                      15.68014063972468                        15.68014063972468               -6.7339595081960556e-20     0.92860546195419835  0                     0.92860546195419835   0                     -3.0688751618749372e-17    1.4848669678154469e-17    11                            11                          0                     0.95902348808591775  0.22661533154056132 -0.12379167563692514    0.89576185902076533       0.22696866821672518      -0.3369539798462316            2.2730732071088382e-12              1.3920056140296766e-11       
                      -1.5271318072558674e-17                          73                                          3184.8842599044774                  -1.2235526877861071e-09                 3.1404041165355418e-20             -1.6283759094875175e-19         8.0991507473528645e-19             16.122566744343207                     16.122566744343207                       16.122566744343207              -1.1885865255568413e-20     0.14413536075332312  0                     0.14413536075332312   0                     -3.0458380144163654e-17    1.4551870453074011e-17    12                            12                          0                     0.95182437950511423  0.25769754714958021 -0.10591207886855625    0.87541367765050038       0.27687087451756387      -0.34745117457046965           2.2341692892149699e-12              1.6154225429511736e-11       
                      -1.528319878298574e-17                          85                                          3271.1439434417102                  -8.6236981462771005e-09                -1.1880710427062763e-20             -1.7865403441382767e-19         8.3669825216990168e-19             16.355655545371992                     16.355655545371992                       16.355655545371992              -1.940786701616704e-21     0.021634607738725969  0                     0.021634607738725969   0                     -3.0270369089530668e-17    1.433106687549047e-17    13                            13                          0                     0.94594903404783304  0.2803359559737208  -0.088221627796426935    0.85650132305033422       0.32262934602763826      -0.35152125909809395           1.9940330381322373e-12              1.8148258467643974e-11       
                      -1.5300228817613563e-17                          91                                          3326.7707927065367                  -9.3980700364200295e-09                -1.7030034627823287e-20             -1.9055650439043857e-19         8.4474564222126323e-19             16.100688828502022                     16.355655545371992                       16.355655545371992              -2.8980775243769626e-22     0.0030517571020241508  0                     0.0030517571020241508   0                     -3.0118794871796955e-17    1.4164666724105006e-17    14                            14                          0                     0.94121233974365459  0.29676320758526559 -0.070747033346676286    0.83829465399667247       0.36550839878292357      -0.35087866475305673           1.8517417422760461e-12              2.0000000209920021e-11       
                      -1.5317179706155434e-17                          97                                          3351.0741466942577                  -9.1778658831350792e-09                -1.6950888541871243e-20             -1.9936957828908964e-19         8.4599932535485593e-19             15.328024536719902                     16.355655545371992                       16.355655545371992              -3.6380630988782632e-23     0.00036858400421987638  0                     0.00036858400421987638   0                     -2.9996369908776046e-17    1.4032596836185835e-17    15                            15                          0                     0.93738655964925177  0.30844928303542229 -0.052881857415947829    0.81975299741815799       0.40765351378588127      -0.34623547895035789           1.8229092586664734e-12              2.1822909468586493e-11       
                      -1.5334038308520023e-17                          103                                         3387.3718865993983                  -9.0564220176772805e-09                -1.6858602364593664e-20             -2.0520216463800445e-19         8.4838373102987266e-19             14.256634421964131                     16.355655545371992                       16.355655545371992              -3.590870071128039e-24     3.5546472997542231e-05  0                     3.5546472997542231e-05   0                     -2.9902131469000385e-17    1.3924915184958564e-17    16                            16                          0                     0.93444160840626145  0.31568445547469576 -0.034354716068294447    0.8003422892059443        0.45010903468256747      -0.33749537642256455           1.8539728455884237e-12              2.3676882314174915e-11       
                      -1.5350944867907283e-17                          109                                         3333.225185015136                   -9.235469239896923e-09                -1.6906559387260986e-20             -2.0777123194218872e-19         8.5674610697721725e-19             13.147611623631837                     16.355655545371992                       16.355655545371992              -2.8842681232959606e-25     2.8324421913903018e-06  0                     2.8324421913903018e-06   0                     -2.9839445354822162e-17    1.3839525900306662e-17    17                            17                          0                     0.93248266733819274  0.31821789382665849 -0.015785480131404878    0.78061419208548821       0.49173876443416137      -0.32470565896528319           1.8541665515573517e-12              2.5531048865732269e-11       
                      -1.5368647311780072e-17                          115                                         3157.7964232282438                  -9.7210795275799308e-09                -1.7702443872791812e-20             -2.0702610781597702e-19         8.7361423128371563e-19             12.495152890315957                     16.355655545371992                       16.355655545371992              -1.8338566508394301e-26     1.8131719010987146e-07  0                     1.8131719010987146e-07   0                     -2.9807249004871572e-17    1.3772013587962327e-17    18                            18                          0                     0.93147653140223652  0.31606501459682645  0.0026868044830074115    0.76075733920336186       0.53239137492311173      -0.30775906610409726           1.8727999264820474e-12              2.7403848792214317e-11       
                      -1.538814149502813e-17                          121                                         2925.5249902111777                  -1.0513376233071305e-08                -1.9494183248055405e-20             -2.0285119683844641e-19         8.9936492670586936e-19             12.123637676931546                     16.355655545371992                       16.355655545371992              -8.5867090320687091e-28     8.6831635848564289e-09  0                     8.6831635848564289e-09   0                     -2.9803872412865029e-17    1.3719217188828146e-17    19                            19                          0                     0.93137101290203184  0.30902867904058268  0.021106931024729859    0.74082758565689721       0.5721765437630284       -0.28628912277505331           1.9317048416778921e-12              2.9335553633892211e-11       
                      -1.5409544396863748e-17                          127                                         2648.7932457651623                  -1.1578632145698497e-08                -2.1402901835615407e-20             -1.95484706916867e-19         9.3063884834548912e-19             11.814567930473354                     16.355655545371992                       16.355655545371992              -3.1616169543548093e-29     3.3237286566885184e-10  0                     3.3237286566885184e-10   0                     -2.9826131267107881e-17    1.3681432728847126e-17    20                            20                          0                     0.93206660209712033  0.29725810987839257  0.038646000867979348    0.7218292272761091        0.60924405554897987      -0.26104902349867454           1.9415684087432878e-12              3.12771220426355e-11       
                      -1.5433271859349183e-17                          133                                         2577.6246337848738                  -1.2863735886611952e-08                -2.3727462485433893e-20             -1.8548303268098285e-19         9.6345740844255468e-19             11.271618564451837                     16.355655545371992                       16.355655545371992              -9.2378030999612183e-31     1.0271208616746638e-11  0                     1.0271208616746638e-11   0                     -2.9867590996967862e-17    1.3656344761858032e-17    21                            21                          0                     0.93336221865524571  0.281058790299624    0.054925490117720056    0.70425362365734212       0.64273105525623653      -0.23261304544592271           1.9442789209962355e-12              3.3221400963631735e-11       
                      -1.5461664217382021e-17                          139                                         2883.1901119712925                  -1.4410205501497499e-08                -2.8392358032832123e-20             -1.7277153517935075e-19         9.9636137673134701e-19             11.434361667184866                     16.355655545371992                       16.355655545371992              -1.6248171384413356e-32     1.9587593762878718e-13  0                     1.9587593762878718e-13   0                     -2.9924293080602173e-17    1.3639039021668173e-17    22                            22                          0                     0.93513415876881789  0.25922293565490734  0.070640981929687124    0.68746195541370125       0.67384841885626034      -0.19924758519113106           2.0840452319026367e-12              3.5305446195534369e-11       
                      -1.5491502644418788e-17                          151                                         3138.2580583741628                  -1.5928423700238622e-08                -2.9838427036775807e-20             -1.5999602698271958e-19         1.02471352160938e-18             11.959340801707151                     16.355655545371992                       16.355655545371992              -2.810365510639582e-34     3.739617851921222e-15  0                     3.739617851921222e-15   0                     -2.9979901922984253e-17    1.3623681783938805e-17    23                            23                          0                     0.9368719350932575   0.23484731778774615  0.083578419127087814    0.67396696671084111       0.6980531523543031       -0.16568382577428389           1.9671599526503043e-12              3.7272606148184673e-11       
                      -1.5521808356556704e-17                          157                                         3327.9974659850436                  -1.7267496766184209e-08                -3.0305712137913091e-20             -1.4853640760175728e-19         1.0523127547263241e-18             12.653360270269278                     16.355655545371992                       16.355655545371992              -5.2590484688196772e-36     7.8472683595709463e-17  0                     7.8472683595709463e-17   0                     -3.0024976259478074e-17    1.3599391555796806e-17    24                            24                          0                     0.93828050810868924  0.20942990238147033  0.093758961272655289    0.66381337279315444       0.71562473005644622      -0.13339795636799287           1.8248500557589504e-12              3.909745620394362e-11       
                      -1.5554008257902627e-17                          163                                         3443.4709405895178                  -1.8411500123600149e-08                -3.2199901345920637e-20             -1.3856020394023483e-19         1.0865954637531737e-18             13.194128759418943                     16.355655545371992                       16.355655545371992              -8.3818815922463919e-38     1.4382048571669042e-18  0                     1.4382048571669042e-18   0                     -3.0056379244665456e-17    1.3554335726949889e-17    25                            25                          0                     0.93926185139579543  0.18212551463195489  0.10197570045589567    0.65625048889617865       0.72821390840995959      -0.1010202468742727            1.803122248746643e-12              4.0900578452690261e-11       
                      -1.5588456992310062e-17                          169                                         3594.9309442452768                  -1.9274486792142682e-08                -3.4448734407445971e-20             -1.3070005275989201e-19         1.135030605807227e-18             14.000206995819632                     16.355655545371992                       16.355655545371992              -1.0204688599582906e-39     2.0875378524362783e-20  0                     2.0875378524362783e-20   0                     -3.0069148867489067e-17    1.3476361322131669e-17    26                            26                          0                     0.93966090210903319  0.15276202937580036  0.1083420368827932     0.65126148927872507       0.73618686435220304      -0.068339009923883462           1.8254720697727132e-12              4.2726050522462977e-11       
                      -1.5624434608628646e-17                          175                                         3687.6803078590729                  -1.9746316347841228e-08                -3.5977616318574703e-20             -1.2577261592653941e-19         1.2032063879807001e-18             14.654362871411845                     16.355655545371992                       16.355655545371992              -9.4658963637477333e-42     2.4257586243547865e-22  0                     2.4257586243547865e-22   0                     -3.0058588029426263e-17    1.3356719648743455e-17    27                            27                          0                     0.93933087591956999  0.12194505190960522  0.11271503480475945    0.64905503801078968       0.73962062821461139      -0.036019139952251873           1.8407079067137243e-12              4.45667584291767e-11       
                      -1.5661145932424665e-17                          181                                         3613.1635508176846                  -1.9760613473541267e-08                -3.6711323796025517e-20             -1.2433102882393983e-19         1.2936703602265029e-18             15.346609734742046                     16.355655545371992                       16.355655545371992              -6.5055444385473963e-44     2.2525049783840724e-24  0                     2.2525049783840724e-24   0                     -3.0022309773973006e-17    1.3191824510145778e-17    28                            28                          0                     0.93819718043665701  0.090254301613331117  0.11501273009126675    0.64974097473118642       0.7387939115053791       -0.0045811693797996652           1.8548421928532644e-12              4.6421600622029965e-11       
                      -1.569789261521918e-17                          187                                         3440.1765083999808                  -1.9286287256155413e-08                -3.6746682794501235e-20             -1.2664755837705849e-19         1.4062872643523535e-18             16.168320199108663                     16.355655545371992                       16.355655545371992              -3.0189262828007559e-46     1.6226588318963311e-26  0                     1.6226588318963311e-26   0                     -2.9960132233125532e-17    1.2982599911931058e-17    29                            29                          0                     0.93625413228517318  0.058140038117113373  0.11517849297201009    0.65337162874923982       0.7340393894830729        0.025647581742465782           1.8784063539893037e-12              4.8300006976019266e-11       
                      -1.5733470850003791e-17                          193                                         3246.2179832475067                  -1.8349321083810053e-08                -3.5578234784622001e-20             -1.3262881993404677e-19         1.5358042561498215e-18             16.975224198336594                     16.975224198336594                       16.975224198336594              -7.9540172226424206e-49     9.3785716753123672e-29  0                     9.3785716753123672e-29   0                     -2.9875452612402051e-17    1.2738806326182485e-17    30                            30                          0                     0.93360789413756384  0.026503293551818682  0.11317785761778831    0.65986847569694429       0.72578698144768972       0.053974972506478328           1.8872430780543387e-12              5.0187250054073603e-11       
                      -1.5766863080614251e-17                          199                                         3073.1051714151968                  -1.7041628435267268e-08                -3.3392230610463359e-20             -1.4173087984970806e-19         1.6730441428821631e-18             17.364681976727187                     17.364681976727187                       17.364681976727187               5.480702695495843e-52     4.486165396784714e-31  0                     4.486165396784714e-31   0                     -2.9774801771141666e-17    1.247662542749496e-17    31                            31                          0                     0.93046255534817723 -0.0038177807567460185  0.10906262577215713    0.66900442713484898       0.7145435034559019        0.079841849772570986           1.8843699323277454e-12              5.207161998640135e-11       