# ODT 1.0
# Table Start
# Title: mmArchive Data Table, Tue Apr 25 12:14:55 COT 2017
# Columns: {Oxs_RungeKuttaEvolve:evolve:Total energy} {Oxs_RungeKuttaEvolve:evolve:Energy calc count} {Oxs_RungeKuttaEvolve:evolve:Max dm/dt} Oxs_RungeKuttaEvolve:evolve:dE/dt {Oxs_RungeKuttaEvolve:evolve:Delta E} Oxs_CubicAnisotropy::Energy Oxs_UniformExchange::Energy {Oxs_UniformExchange::Max Spin Ang} {Oxs_UniformExchange::Stage Max Spin Ang} {Oxs_UniformExchange::Run Max Spin Ang} Oxs_ScriptUZeeman::Energy Oxs_ScriptUZeeman::B Oxs_ScriptUZeeman::Bx Oxs_ScriptUZeeman::By Oxs_ScriptUZeeman::Bz Oxs_FixedZeeman::Energy Oxs_Demag::Energy    Oxs_TimeDriver::Iteration {Oxs_TimeDriver::Stage iteration} Oxs_TimeDriver::Stage Oxs_TimeDriver::mx   Oxs_TimeDriver::my   Oxs_TimeDriver::mz   Oxs_TimeDriver::mx_corner Oxs_TimeDriver::my_corner Oxs_TimeDriver::mz_corner {Oxs_TimeDriver::Last time step} {Oxs_TimeDriver::Simulation time}
# Units:                       J                                            {}                                        deg/ns                                 J/s                                  J                                J                           J                              deg                                    deg                                      deg                               J                      mT                   mT                    mT                    mT                      J                    J                       {}                            {}                          {}                   {}                   {}                   {}                      {}                        {}                        {}                            s                                 s                
                      -1.9828395921791887e-17                          1                                           4682.9259385583237                  -4.7220070791585057e-08                 0                               -9.6331358159048338e-22         0                               0                                      0                                        0                               -1.2796801199499635e-18     200                  0                     200                   0                     -3.1992002998750553e-17    1.3444250510490219e-17    0                             0                           0                     0.99975009371095891  0.019995001874219157  0.0099975009371095786    0.99975009371095369       0.019995001874219126       0.009997500937109563           0                                0                         
                      -1.9828491567692067e-17                          7                                           4683.0173041227799                  -4.7075227944429129e-08                -9.5645900119702341e-23             -9.6052337929585827e-22         3.7805327446574978e-26             0.003734168711539523                    0.003734168711539523                      0.003734168711539523             -1.279598558956456e-18     199.99997717934767   0                     199.99997717934767    0                     -3.1992026169027017e-17    1.3444093645865375e-17    1                             1                           0                     0.99975081778209396  0.019993729765044384  0.0099273708561694179    0.99975110353514773       0.019995479100758148       0.009894964192162339           2.0286462191893324e-15              2.0286462191893324e-15       
                      -1.9828871213025763e-17                          13                                          4683.3737726302179                  -4.6495882363118866e-08                -3.7964533370419166e-22             -9.4958294915641411e-22         9.4508899662986101e-25             0.018668522282707236                    0.018668522282707236                      0.018668522282707236             -1.2792814276286003e-18     199.99942948447227   0                     199.99942948447227    0                     -3.1992117019031202e-17    1.3443475871494198e-17    2                             2                           0                     0.99975365684472461  0.019988829326384381  0.0096468532843058258    0.9997550200862475        0.01999752539414543       0.0094848197736177881           8.1145848767573298e-15              1.0143231095946663e-14       
                      -1.9830342784639608e-17                          19                                          4684.6553359790478                  -4.4178568828453951e-08                -1.4715716138417641e-21             -9.0934751505134467e-22         1.6668075127792627e-23             0.078367111488834559                    0.078367111488834559                      0.078367111488834559             -1.2781587270289201e-18     199.98993634493857   0                     199.98993634493857    0                     -3.1992451121660743e-17    1.3441159743489979e-17    3                             3                           0                     0.99976409755189755  0.019972235078250029  0.0085248470726888032    0.99976872235016478       0.020007908341011477       0.0078443036478360317           3.2458339507029319e-14              4.2601570602975979e-14       
                      -1.9835476130562167e-17                          25                                          4687.4479557103859                  -3.4888439503993046e-08                -5.133345922562449e-21             -8.0481407850170817e-22         2.7281462599027892e-22             0.31643273998268256                    0.31643273998268256                      0.31643273998268256             -1.2759998550163383e-18     199.83518872154983   0                     199.83518872154983    0                     -3.199331898376575e-17    1.3434374707672435e-17    4                             4                           0                     0.99979121824267947  0.019953940907185431  0.0040391297945344693    0.99979211836052806       0.020084573645060388       0.0012845398233139313           1.2983335802811728e-13              1.7243492863109324e-13       
                      -1.9843674049669181e-17                          31                                          4671.1149458670943                   3.9741287613822735e-09                -8.1979191070038163e-21             -1.2816989206391533e-21         4.3622207165155822e-21             1.253670596990619                      1.253670596990619                        1.253670596990619               -1.3039119821784232e-18     197.3639180665935    0                     197.3639180665935     0                     -3.1989356480479336e-17    1.3446513891192703e-17    5                             5                           0                     0.99966739001497906  0.020645744086478311 -0.013785215658964544    0.99938643414401673       0.020950426175550103      -0.024833958119065618           5.1933343211246911e-13              6.917683607435624e-13       
                      -1.9626396949615912e-17                          37                                          4432.3617691242225                   2.3533245277151147e-07                 2.1727710005325965e-19             -1.5038362479288076e-20         6.3506536355047207e-20             4.5812238379131651                     4.5812238379131651                       4.5812238379131651              -1.7925093670529037e-18     162.88238394005842   0                     162.88238394005842    0                     -3.1873904615361641e-17    1.3991548858922871e-17    6                             6                           0                     0.99605951923005087  0.03439040881242092 -0.077089969903521835    0.99091472755439591       0.032521627100078158      -0.12040731206636568           2.0293041212582491e-12              2.7210724820018117e-12       
                      -1.8716935612365236e-17                          43                                          3716.4667965638309                   5.6217979953549082e-07                 9.0946133725067997e-19             -4.1939564491517392e-20         1.8887949132363791e-19             8.9943348227728919                     8.9943348227728919                       8.9943348227728919              -2.1260958495404249e-18     101.12628401105795   0                     101.12628401105795    0                     -3.1641511377168464e-17    1.4903731687511533e-17    7                             7                           0                     0.98879723053651414  0.065700520836771831 -0.12485958680931038    0.97343039423982225       0.058156495765032193      -0.20336705169549107           2.2383679581533835e-12              4.9594404401551952e-12       
                      -1.7326237569883171e-17                          49                                          3087.2935396073308                   6.2843723478873395e-07                 1.3906980424820665e-18             -6.9073494689337389e-20         3.4491635302507057e-19             12.50389405923471                      12.50389405923471                        12.50389405923471               -1.6223988835462243e-18     47.853084115788754   0                     47.853084115788754    0                     -3.1397481225737973e-17    1.5417799681065294e-17    8                             8                           0                     0.98117128830431155  0.10594921110652392 -0.14611257800082916    0.95385318796541596       0.093006753781470802      -0.25925212652116136           2.2226835248551133e-12              7.1821239650103081e-12       
                      -1.61403005404163e-17                          55                                          2788.8200314551136                   4.0947949331351469e-07                 1.1859370294668643e-18             -9.3812896693084362e-20         5.0308278679058231e-19             14.447618887722818                     14.447618887722818                       14.447618887722818              -8.1666265618898735e-19     17.172338890973883   0                     17.172338890973883    0                     -3.1164460222107888e-17    1.5431552447783078e-17    9                             9                           0                     0.97388938194087216  0.14861521291849161 -0.14797346874428266    0.93466287741137211       0.13380772675665223      -0.29545410074316691           2.227766504002535e-12              9.4098904690128428e-12       
                      -1.551243616184917e-17                          61                                          2839.905671363204                    1.6673030079801919e-07                 6.278643785671333e-19             -1.1736245090710544e-19         6.4149498506937067e-19             15.257069515894671                     15.257069515894671                       15.257069515894671              -2.8207365858827962e-19     4.6523342249488326   0                     4.6523342249488326    0                     -3.0930310166887516e-17    1.517581512946436e-17    10                            10                          0                     0.96657219271523465  0.18947051962890074 -0.13879176406186808    0.91561946204677891       0.1785775330900895       -0.3198242267015079            2.236891753599808e-12              1.1646782222612651e-11       
                      -1.5302205252892136e-17                          67                                          3046.1427512106366                   3.8349457240973559e-08                 2.1023090895703176e-19             -1.4022126057241594e-19         7.4666619568102231e-19             15.678121695206045                     15.678121695206045                       15.678121695206045              -6.7354378754390552e-20     0.92877005946211288  0                     0.92877005946211288   0                     -3.0688884279187983e-17    1.4847588469941634e-17    11                            11                          0                     0.95902763372462441  0.22662491266069579 -0.12375049674679602    0.89576875042964099       0.2270130898325983       -0.33690857487823489           2.2730443024588608e-12              1.3919826525071512e-11       
                      -1.5270788122255583e-17                          73                                          3184.8700614913132                  -1.2205458582804549e-09                 3.141713063655063e-20             -1.6064964409437663e-19         8.0971828494676841e-19             16.120153600017922                     16.120153600017922                       16.120153600017922              -1.1888511779578845e-20     0.14416681967586731  0                     0.14416681967586731   0                     -3.0458605753660414e-17    1.4550637502332017e-17    12                            12                          0                     0.95183142980188762  0.2576986812548992  -0.1058585696115574     0.87542320801563689       0.27691715188885024      -0.34739184427166914           2.2341552762145394e-12              1.6153981801286051e-11       
                      -1.5282665248549628e-17                          85                                          3271.0795379570873                  -8.6223738780392393e-09                -1.1877126294035722e-20             -1.7624634089785795e-19         8.3648130928493509e-19             16.352995701213992                     16.352995701213992                       16.352995701213992              -1.9410982794478111e-21     0.021638835982209184  0                     0.021638835982209184   0                     -3.0270705471616424e-17    1.4329746352959167e-17    13                            13                          0                     0.94595954598801313  0.28032617504294827 -0.088156634972257855    0.85651331727544999       0.32267552406777661      -0.35144933565189779           1.9940824792262307e-12              1.8148064280512281e-11       
                      -1.5299693769815258e-17                          91                                          3326.6024481337213                  -9.3973072942193939e-09                -1.7028521265637674e-20             -1.8797986283920598e-19         8.4452444976497981e-19             16.097926318434645                     16.352995701213992                       16.352995701213992              -2.8983264351259846e-22     0.0030522611051211532  0                     0.0030522611051211532   0                     -3.0119262984545183e-17    1.4163314460447666e-17    14                            14                          0                     0.94122696826703744  0.29673968896606479 -0.070671885004217047    0.83830954968267879       0.36555187895429092      -0.35079534550376568           1.8517870263727277e-12              1.9999851306885009e-11       
                      -1.5316644039596929e-17                          97                                          3350.8241016880843                  -9.1779014672570526e-09                -1.6950269781667293e-20             -1.9666348483379741e-19         8.4578871974552959e-19             15.325335285790899                     16.352995701213992                       16.352995701213992              -3.6381921590178337e-23     0.00036864541338099953  0                     0.00036864541338099953   0                     -2.999699345613841e-17    1.4031260563551339e-17    15                            15                          0                     0.93740604550432505  0.30840884178261513 -0.052797914933863911    0.81977166277071933       0.40769135695205394      -0.34614196956122834           1.8229204934565829e-12              2.1822771800341593e-11       
                      -1.5333503691657791e-17                          103                                         3387.0151237828181                  -9.0576856760123792e-09                -1.6859652060869804e-20             -2.0240468668395939e-19         8.4819641755510382e-19             14.254499534544779                     16.352995701213992                       16.352995701213992              -3.5908778212603324e-24     3.555337255609792e-05  0                     3.555337255609792e-05   0                     -2.9902930964025083e-17    1.3923639132373969e-17    16                            16                          0                     0.93446659262578413  0.31562387432395334 -0.034263297212587383    0.80036556645361578       0.45013874015710831      -0.33739323148466643           1.8539626901441113e-12              2.3676734490485705e-11       
                      -1.5350414164088862e-17                          109                                         3332.8099675841254                  -9.2383276484227113e-09                -1.6910472431066074e-20             -2.049248832225076e-19         8.5659008019416028e-19             13.144717360159348                     16.352995701213992                       16.352995701213992              -2.8840543444165448e-25     2.8329728455190841e-06  0                     2.8329728455190841e-06   0                     -2.9840427834922211e-17    1.3838348762267131e-17    17                            17                          0                     0.93251336984131894  0.3181347057581958  -0.015687894757575965    0.78064226875221276       0.49175936788091384      -0.32459683048984511           1.8541820548376899e-12              2.5530916545323394e-11       
                      -1.5368123649687353e-17                          115                                         3157.2656174700146                  -9.7258094441276399e-09                -1.7709485598490004e-20             -2.0417441333748678e-19         8.7349220921395924e-19             12.492556415563271                     16.352995701213992                       16.352995701213992              -1.8336070856903832e-26     1.8135460598321591e-07  0                     1.8135460598321591e-07   0                     -2.9808414250670708e-17    1.3770972823442954e-17    18                            18                          0                     0.93151294533345996  0.31595680251499864  0.0027885575384011649    0.76079080507479124       0.53240120341333308      -0.30764610628742511           1.8727964636512773e-12              2.7403713008974672e-11       
                      -1.5387628681569201e-17                          121                                         2924.990325896812                   -1.0520158800817688e-08                -1.950503188185565e-20             -2.0003991877675817e-19         8.9927449290892184e-19             12.121361151012296                     16.352995701213992                       16.352995701213992              -8.5852005158265839e-28     8.6854510145951911e-09  0                     8.6854510145951911e-09   0                     -2.9805209999047312e-17    1.3718346744204467e-17    19                            19                          0                     0.93141281247022767  0.30889301622764997  0.021210541709050731    0.74086707031771959       0.57217405107232877      -0.28617504509968111           1.9316787035942465e-12              2.9335391712568917e-11       
                      -1.5409046757027401e-17                          127                                         2648.2884411064501                  -1.1587433609822612e-08                -2.1418075458198213e-20             -1.9275808143120429e-19         9.305738876880058e-19             11.812554775874384                     16.352995701213992                       16.352995701213992              -3.1607456075483355e-29     3.3246528333553272e-10  0                     3.3246528333553272e-10   0                     -2.9827611459010818e-17    1.3680748895758221e-17    20                            20                          0                     0.93211285809408773  0.29709357694409499  0.038749223029847235    0.72187461464564817       0.60922942959851845      -0.26093655271785166           1.941570032124695e-12              3.127696174469361e-11       
                      -1.543279364044792e-17                          133                                         2577.4104577506678                  -1.287430415853912e-08                -2.374688342050827e-20             -1.8287946550773501e-19         9.6341199193301356e-19             11.269660107013593                     16.352995701213992                       16.352995701213992              -9.2334080593067982e-31     1.0273425541469012e-11  0                     1.0273425541469012e-11   0                     -2.9869170679080884e-17    1.3655844512208609e-17    21                            21                          0                     0.93341158372127742  0.28086445041006092  0.055025898574666721    0.70430465119895069       0.64270501812405567      -0.23250457095053359           1.944322066884356e-12              3.3221283811577964e-11       
                      -1.5461210377222836e-17                          139                                         2882.9250678504764                  -1.442209625646703e-08                -2.8416736774918416e-20             -1.7033231028739388e-19         9.9633350909373339e-19             11.436211995881477                     16.352995701213992                       16.352995701213992              -1.6235738792518565e-32     1.9589706422356349e-13  0                     1.9589706422356349e-13   0                     -2.9925917398559638e-17    1.363870582253048e-17    22                            22                          0                     0.93518491870498799  0.25899665177584469  0.070735138848426152    0.68751902116387931       0.67381066859255301      -0.19914628492097633           2.084107294538894e-12              3.5305391106116856e-11       
                      -1.5491071686460005e-17                          151                                         3137.9118363903535                  -1.5940647496440009e-08                -2.9861309237173916e-20             -1.5773069165546662e-19         1.0247043585389645e-18             11.961388471036122                     16.352995701213992                       16.352995701213992              -2.80802716805303e-34     3.7405462179837641e-15  0                     3.7405462179837641e-15   0                     -2.9981496122855169e-17    1.3623450769511666e-17    23                            23                          0                     0.93692175383922438  0.23459367666617686  0.083662564744571066    0.67403054011203378       0.69800358401369933      -0.16559426217609508           1.9670949446633771e-12              3.7272486050780235e-11       
                      -1.5521398374238192e-17                          157                                         3327.5464411042321                  -1.7279154638075082e-08                -3.0326687778178471e-20             -1.4643478167287501e-19         1.0523310273915025e-18             12.655582085227238                     16.352995701213992                       16.352995701213992              -5.2541179850446637e-36     7.8502854335663917e-17  0                     7.8502854335663917e-17   0                     -3.0026480468519637e-17    1.3599185848562819e-17    24                            24                          0                     0.93832751464123831  0.20915314280241828  0.093831090451750962    0.66388255488839709       0.71556568211326843      -0.13332153753850065           1.8247928481492395e-12              3.9097278898929475e-11       
                      -1.5553617655149702e-17                          163                                         3442.9399607488026                  -1.8421720246996301e-08                -3.2219280911515318e-20             -1.3660951775236711e-19         1.0866547456496885e-18             13.196750941575081                     16.352995701213992                       16.352995701213992              -8.3720876695962854e-38     1.4388711995831539e-18  0                     1.4388711995831539e-18   0                     -3.0057739333750385e-17    1.355407645070336e-17    25                            25                          0                     0.93930435417969871  0.18182846369478994  0.10203351313941433    0.65632452246868422       0.72814729920763133      -0.10095805189506731           1.8030953177561578e-12              4.0900374216685634e-11       
                      -1.5588082378841009e-17                          169                                         3594.2857977782683                  -1.9282347763071662e-08                -3.4464723691304455e-20             -1.2887890296345124e-19         1.1351461057902609e-18             14.003490682214867                     16.352995701213992                       16.352995701213992              -1.0189492293573078e-39     2.0887175149500243e-20  0                     2.0887175149500243e-20   0                     -3.0070314399743121e-17    1.3475964818075303e-17    26                            26                          0                     0.93969732499197201  0.15244839567584026  0.10838279657288966    0.65133971636111587       0.73611427064135426      -0.068292657009680291           1.8254378577392088e-12              4.2725812074424842e-11       
                      -1.5624071021233205e-17                          175                                         3686.9303009222117                  -1.9751000870438508e-08                -3.5988642392198801e-20             -1.2404689754834103e-19         1.2033911728283977e-18             14.657829976905337                     16.352995701213992                       16.352995701213992              -9.4469362016195067e-42     2.4273815650699198e-22  0                     2.4273815650699198e-22   0                     -3.0059521416106887e-17    1.3356106119593624e-17    27                            27                          0                     0.93936004425333997  0.12161942751349261  0.11273625015284984    0.64913649137724061       0.73954387758717022      -0.035989533449520522           1.8406757193197258e-12              4.4566487793744566e-11       
                      -1.5660786821549461e-17                          181                                         3612.3336356152649                  -1.9761502030133282e-08                -3.6715800316253798e-20             -1.2265660182524874e-19         1.2939312044574503e-18             15.35021166594932                      16.352995701213992                       16.352995701213992              -6.486775522901769e-44     2.2542986269407785e-24  0                     2.2542986269407785e-24   0                     -3.0022991233797361e-17    1.3190929809615698e-17    28                            28                          0                     0.93821847605616704  0.089922307838057769  0.11501218251602195    0.64982444317016053       0.73871491126246658      -0.004568783925657436           1.8548036103860998e-12              4.6421291404130664e-11       
                      -1.5697530435667179e-17                          187                                         3439.2744442786416                  -1.928302587091159e-08                -3.6743614117722095e-20             -1.2497347136864502e-19         1.4066221474050573e-18             16.172707542942476                     16.352995701213992                       16.352995701213992              -3.0045288324472441e-46     1.6241947049186684e-26  0                     1.6241947049186684e-26   0                     -2.9960562758562832e-17    1.2981383646859243e-17    29                            29                          0                     0.93626758620508865  0.057808048339055521  0.11515426335683127    0.6534556808545301        0.73396007799164764       0.025642820767542981           1.8783623386295283e-12              4.8299653742760192e-11       
                      -1.5733099077391529e-17                          193                                         3245.2350366435826                  -1.8341911629555429e-08                -3.5568641724346999e-20             -1.3090189086569346e-19         1.5362037028232285e-18             16.979919696407006                     16.979919696407006                       16.979919696407006              -7.8632267484055844e-49     9.3870835634256042e-29  0                     9.3870835634256042e-29   0                     -2.9875656026144291e-17    1.2737255136795226e-17    30                            30                          0                     0.93361425081700899  0.026177015920587202  0.11312862564114713    0.65995184184510469       0.72570884666158797       0.05395498084594403           1.8872703359627697e-12              5.0186924078722965e-11       
                      -1.5766470550305638e-17                          199                                         3072.0680167635651                  -1.7030688676649572e-08                -3.3371472914110119e-20             -1.3990072582186895e-19         1.6734644008725298e-18             17.370146915811784                     17.370146915811784                       17.370146915811784               5.934532613227383e-52     4.4928490437849899e-31  0                     4.4928490437849899e-31   0                     -2.9774841882705407e-17    1.2474807657349108e-17    31                            31                          0                     0.9304638088345436  -0.0041277626369373788  0.10898842469524       0.66908450890909144       0.71446946341732875       0.079805105759491929           1.8841803223824188e-12              5.2071104401105383e-11       