# ODT 1.0
# Table Start
# Title: mmArchive Data Table, Tue Apr 25 12:16:19 COT 2017
# Columns: {Oxs_RungeKuttaEvolve:evolve:Total energy} {Oxs_RungeKuttaEvolve:evolve:Energy calc count} {Oxs_RungeKuttaEvolve:evolve:Max dm/dt} Oxs_RungeKuttaEvolve:evolve:dE/dt {Oxs_RungeKuttaEvolve:evolve:Delta E} Oxs_CubicAnisotropy::Energy Oxs_UniformExchange::Energy {Oxs_UniformExchange::Max Spin Ang} {Oxs_UniformExchange::Stage Max Spin Ang} {Oxs_UniformExchange::Run Max Spin Ang} Oxs_ScriptUZeeman::Energy Oxs_ScriptUZeeman::B Oxs_ScriptUZeeman::Bx Oxs_ScriptUZeeman::By Oxs_ScriptUZeeman::Bz Oxs_FixedZeeman::Energy Oxs_Demag::Energy    Oxs_TimeDriver::Iteration {Oxs_TimeDriver::Stage iteration} Oxs_TimeDriver::Stage Oxs_TimeDriver::mx   Oxs_TimeDriver::my   Oxs_TimeDriver::mz   Oxs_TimeDriver::mx_corner Oxs_TimeDriver::my_corner Oxs_TimeDriver::mz_corner {Oxs_TimeDriver::Last time step} {Oxs_TimeDriver::Simulation time}
# Units:                       J                                            {}                                        deg/ns                                 J/s                                  J                                J                           J                              deg                                    deg                                      deg                               J                      mT                   mT                    mT                    mT                      J                    J                       {}                            {}                          {}                   {}                   {}                   {}                      {}                        {}                        {}                            s                                 s                
                      -1.9828434486305733e-17                          1                                           4683.0275009351826                  -4.7224250163136733e-08                 0                               -1.0018780954355287e-21         0                               0                                      0                                        0                               -1.2796801199499635e-18     200                  0                     200                   0                     -3.1992002998750553e-17    1.3444250510490219e-17    0                             0                           0                     0.99975009371095891  0.019995001874219157  0.0099975009371095786    0.99975009371095369       0.019995001874219126       0.009997500937109563           0                                0                         
                      -1.9828530138613794e-17                          7                                           4683.1188839454053                  -4.7079411169281423e-08                -9.5652308010776387e-23             -9.9897626252315667e-22         3.780368780981512e-26             0.0037340877317589213                    0.0037340877317589213                      0.0037340877317589213             -1.2795986748112747e-18     199.99997718033748   0                     199.99997718033748    0                     -3.1992026168467154e-17    1.3444093643123472e-17    1                             1                           0                     0.99975081776459884  0.019993731575177191  0.0099273689734113799    0.99975110351147445       0.019995480870037174       0.0098949630119847375           2.028602223263239e-15              2.028602223263239e-15       
                      -1.9828909809720087e-17                          13                                          4683.475423376306                   -4.6500080713280044e-08                -3.7967110628177175e-22             -9.8759813251182883e-22         9.450480219486792e-25             0.018668117527898383                    0.018668117527898383                      0.018668117527898383             -1.279281999369971e-18     199.99942950921792   0                     199.99942950921792    0                     -3.1992117016230955e-17    1.3443475858965331e-17    2                             2                           0                     0.99975365675721728  0.019988838257395648  0.0096468438713398722    0.99975501996965654       0.019997534063675961       0.0094848138688952387           8.1144088930529558e-15              1.0143011116316195e-14       
                      -1.9830381486617771e-17                          19                                          4684.7572886544904                  -4.4182823365682307e-08                -1.4716768976948288e-21             -9.4575306976040999e-22         1.6667353609186334e-23             0.07836541438945413                    0.07836541438945413                      0.07836541438945413             -1.2781610017100806e-18     199.98993678143054   0                     199.98993678143054    0                     -3.1992451109880831e-17    1.3441159710689292e-17    3                             3                           0                     0.9997640971837749   0.019972270578340827  0.0085248075464808299    0.99976872189017563       0.020007941781634689       0.0078442787786864362           3.2457635572211823e-14              4.2600646688528022e-14       
                      -1.9835515285590339e-17                          25                                          4687.5514067315398                  -3.489286848811401e-08                -5.1337989725614827e-21             -8.3703938498185755e-22         2.7280292246510062e-22             0.31642594623665571                    0.31642594623665571                      0.31642594623665571             -1.2760070086836752e-18     199.83519586716039   0                     199.83519586716039    0                     -3.1993318935580949e-17    1.3434374895136803e-17    4                             4                           0                     0.99979121673690452  0.019954052061915896  0.004038969578818611    0.9997921169679157        0.020084660896833778       0.0012844377236634877           1.2983054228884729e-13              1.724311889773753e-13       
                      -1.9843715534266105e-17                          31                                          4671.195627826457                    3.9686231665476576e-09                -8.200248675772644e-21             -1.3330364035944145e-21         4.3620484211522869e-21             1.2536468759382571                     1.2536468759382571                       1.2536468759382571              -1.3039080962026008e-18     197.36403164771681   0                     197.36403164771681    0                     -3.1989356264999335e-17    1.3446519814918274e-17    5                             5                           0                     0.99966738328122906  0.020645670675730095 -0.013785885173174596    0.99938643508282921       0.020950007334946827      -0.024834410956943189           5.1932216915538917e-13              6.9175335813276453e-13       
                      -1.9626451142073563e-17                          37                                          4432.4182922750279                   2.352948041655245e-07                 2.1726439219253881e-19             -1.5642716251892429e-20         6.3514880567552682e-20             4.5815387078035688                     4.5815387078035688                       4.5815387078035688              -1.7921826018404584e-18     162.87915687851523   0                     162.87915687851523    0                     -3.1873885685991549e-17    1.3991744981442784e-17    6                             6                           0                     0.99605892768723625  0.034384820857887029 -0.077099496488675701    0.99091350020170943       0.032510587849154615      -0.12041907872494502           2.0294504258857661e-12              2.7212037840185304e-12       
                      -1.8717120609798706e-17                          43                                          3716.348939003864                    5.6201741405160489e-07                 9.0933053227485687e-19             -4.3625381231625006e-20         1.8892324312626187e-19             8.9954627751624674                     8.9954627751624674                       8.9954627751624674              -2.1253508146524117e-18     101.11701447599391   0                     101.11701447599391    0                     -3.1641452964218023e-17    1.4904385307177092e-17    7                             7                           0                     0.98879540513181308  0.065683518547371603 -0.12488090694672251    0.97342608925162732       0.058122338029762473      -0.20339359886792818           2.238569968242181e-12              4.9597737522607114e-12       
                      -1.7326829761541705e-17                          49                                          3086.9986457484083                   6.2818068602845661e-07                 1.390290848257005e-18             -7.184865058022013e-20         3.4502539659335959e-19             12.506021617646509                     12.506021617646509                       12.506021617646509              -1.6216358904109495e-18     47.844228871074719   0                     47.844228871074719    0                     -3.1397392415507207e-17    1.5419021798363313e-17    8                             8                           0                     0.98116851298460028  0.10591898494570465 -0.14614855975990559    0.95384598345532745       0.092943625166977573      -0.25929481836249707           2.222814886807115e-12              7.1825886390678264e-12       
                      -1.6141382183143709e-17                          55                                          2788.4788710711464                   4.0927285329482674e-07                 1.1854475783979969e-18             -9.7582829115145785e-20         5.0329083498969709e-19             14.450944558809928                     14.450944558809928                       14.450944558809928              -8.1620782320447875e-19     17.167346468684688   0                     17.167346468684688    0                     -3.1164328886282828e-17    1.5433446520469048e-17    9                             9                           0                     0.97388527769633859  0.14857563760169251 -0.14803138321946815    0.93465251536453431       0.13371582308245286      -0.29551974741128489           2.2278590569116437e-12              9.4104476959794705e-12       
                      -1.551384361176301e-17                          61                                          2839.4796725304282                   1.6663352027356185e-07                 6.2753857138070254e-19             -1.2208421230666459e-19         6.4182747903060234e-19             15.261747394329312                     15.261747394329312                       15.261747394329312              -2.8190456266552545e-19     4.6505439600008085   0                     4.6505439600008085    0                     -3.0930092689225661e-17    1.5178410373404241e-17    10                            10                          0                     0.96656539653830154  0.1894298314147346  -0.13887922031772337    0.91560516569463923       0.1784610027546765       -0.31992060044529957           2.2369304596695928e-12              1.1647378155649064e-11       
                      -1.5303740209997955e-17                          67                                          3045.9059069155282                   3.8318055800112206e-08                 2.1010340176505246e-19             -1.4587584416615718e-19         7.4713704602284692e-19             15.68411778456792                      15.68411778456792                        15.68411778456792               -6.7310481831643763e-20     0.92828142870448715  0                     0.92828142870448715   0                     -3.0688490489148445e-17    1.4850799559125443e-17    11                            11                          0                     0.95901532778588827  0.22659642778531619 -0.12387275829687561    0.8957482935619866        0.22688115747783211      -0.33704336620181058           2.2731301222618384e-12              1.3920508277910903e-11       
                      -1.5272361955635032e-17                          73                                          3184.911988958389                   -1.2294795401498659e-09                 3.1378254362921971e-20             -1.6714785650978846e-19         8.1030282007606982e-19             16.127320896150405                     16.127320896150405                       16.127320896150405              -1.1880653312818715e-20     0.1440734353560037   0                     0.1440734353560037    0                     -3.0457936019042458e-17    1.4554299753153962e-17    12                            12                          0                     0.95181050059507633  0.25769526152283306 -0.10601744415825148    0.8753949186334512        0.27677969728234242      -0.34756797780027338           2.2341968668646675e-12              1.615470514477557e-11       
                      -1.5284249739017028e-17                          85                                          3271.2704196500895                  -8.6263159469901557e-09                -1.188778338199722e-20             -1.8339776376208485e-19         8.3712576513307899e-19             16.360896278304118                     16.360896278304118                       16.360896278304118              -1.9401728414328386e-21     0.021626284436634786  0                     0.021626284436634786   0                     -3.0269706869049407e-17    1.4333669301502817e-17    13                            13                          0                     0.94592833965779366  0.28035514594485167 -0.088349608355759529    0.8564777156975999        0.32253835300203454      -0.35166285640284967           1.9939356852939071e-12              1.8148640830069476e-11       
                      -1.5301282776847879e-17                          91                                          3327.1021457419033                  -9.3995873902198075e-09                -1.7033037830849618e-20             -1.9563376397384811e-19         8.4518159846420669e-19             16.106132590253402                     16.360896278304118                       16.360896278304118              -2.8975865710221355e-22     0.0030507649383224185  0                     0.0030507649383224185   0                     -3.0117873254780078e-17    1.4167332402098942e-17    14                            14                          0                     0.94118353921187725  0.29680943033989998 -0.070895016524915672    0.83826533656618807       0.36542270705978641      -0.35104270099935481           1.8516525740308682e-12              2.0000293404100344e-11       
                      -1.5318234917342876e-17                          97                                          3351.5666496323729                  -9.1778173592287383e-09                -1.6952140494987829e-20             -2.0470271971404371e-19         8.4641449370644221e-19             15.333324859081573                     16.360896278304118                       16.360896278304118              -3.6378076111695957e-23     0.00036846311860074909  0                     0.00036846311860074909   0                     -2.9995142147478171e-17    1.4035231834219011e-17    15                            15                          0                     0.93734819210869258  0.30852881091806111 -0.053047166181419102    0.81971625984889729       0.40757891170552984      -0.34641958337695072           1.8228871326956931e-12              2.1823180536796037e-11       
                      -1.5335091498647342e-17                          103                                         3388.0745660992061                  -9.0539616765655983e-09                -1.6856581304471224e-20             -2.1071635269130722e-19         8.487530670723747e-19             14.260843082649329                     16.360896278304118                       16.360896278304118              -3.5908530786154388e-24     3.5532891293611159e-05  0                     3.5532891293611159e-05   0                     -2.9900557067669761e-17    1.3927432445494428e-17    16                            16                          0                     0.93439240836467907  0.31580362481481655 -0.034534759159544084    0.80029647259766712       0.45005044777250575      -0.33769649010488162           1.8539928478118935e-12              2.3677173384607929e-11       
                      -1.5351990410515029e-17                          109                                         3334.0432683544                     -9.2298746073799436e-09                -1.6898911867691598e-20             -2.1338282242947303e-19         8.5705384228652483e-19             13.153318222780836                     16.360896278304118                       16.360896278304118              -2.8846873101632933e-25     2.8313975830111236e-06  0                     2.8313975830111236e-06   0                     -2.9837510351067243e-17    1.3841849209163895e-17    17                            17                          0                     0.93242219847085062  0.31838156175415838 -0.015977681183018098    0.78055892779770819       0.4916980917756224       -0.32491993854191653           1.8541360282136594e-12              2.5531309412821588e-11       
                      -1.5369679056154301e-17                          115                                         3158.8421970005056                  -9.7118040923493569e-09                -1.7688645639266553e-20             -2.1264944520615674e-19         8.7385498628270056e-19             12.500273085941297                     16.360896278304118                       16.360896278304118              -1.8343467113514564e-26     1.8124354158055086e-07  0                     1.8124354158055086e-07   0                     -2.9804953669302568e-17    1.3774069090415192e-17    18                            18                          0                     0.93140480216570476  0.31627794419508376  0.002486376624662591    0.76069146658397624       0.53237191164274811      -0.30798148694486382           1.872806731854137e-12              2.7404116144675726e-11       
                      -1.5389151952190915e-17                          121                                         2926.5785101934689                  -1.0500060640300766e-08                -1.9472896036624103e-20             -2.0839617240378867e-19         8.9954344013854096e-19             12.128127019991124                     16.360896278304118                       16.360896278304118              -8.5896717003568251e-28     8.6786618720413839e-09  0                     8.6786618720413839e-09   0                     -2.9801237073972202e-17    1.3720937854905503e-17    19                            19                          0                     0.93128865856163101  0.30929565478394644  0.020902819163260509    0.74074986628870132       0.57218133553432526      -0.28651375109342542           1.9317562760007889e-12              2.9335872420676518e-11       
                      -1.5410525051730378e-17                          127                                         2649.7879224450144                  -1.1561339259791193e-08                -2.1373099539454502e-20             -2.0086409214670861e-19         9.3076716374493606e-19             11.818536652157633                     16.360896278304118                       16.360896278304118              -3.1633293834381395e-29     3.321910129709397e-10  0                     3.321910129709397e-10   0                     -2.9823214303510674e-17    1.3682786180213701e-17    20                            20                          0                     0.93197544698470902  0.29758193139647005  0.038442621871125716    0.72173989198390953       0.60927273205063126      -0.26127049303739158           1.9415651722603772e-12              3.1277437592936894e-11       
                      -1.5434214342742089e-17                          133                                         2578.0456811362737                  -1.2842957593717645e-08                -2.3689291011712118e-20             -1.9062096312778916e-19         9.6354721828856483e-19             11.275476257470949                     16.360896278304118                       16.360896278304118              -9.2464481374515938e-31     1.0266847651858104e-11  0                     1.0266847651858104e-11   0                     -2.9864477146441208e-17    1.365733654853927e-17    21                            21                          0                     0.93326491082628737  0.28144130904978198  0.054727611553714479    0.7041531919397267        0.64278219364444833      -0.2328266510851762            1.944193895867046e-12              3.322163148880394e-11       
                      -1.5462558753771314e-17                          139                                         2883.7112887806279                  -1.4386810381348764e-08                -2.8344411029226719e-20             -1.7758634392425149e-19         9.964166422153625e-19             11.430720530983489                     16.360896278304118                       16.360896278304118              -1.6272642364141496e-32     1.9583442733730001e-13  0                     1.9583442733730001e-13   0                     -2.9921090134174358e-17    1.363970108211195e-17    22                            22                          0                     0.93503406669294864  0.25966837434745893  0.070455360870959771    0.68734964533767251       0.67392261427730649      -0.1994470685732061            2.0839229654530517e-12              3.5305554454256991e-11       
                      -1.5492352137068901e-17                          151                                         3138.9390976410887                  -1.5904355048946221e-08                -2.9793383297594262e-20             -1.6446824855609408e-19         1.0247319958067625e-18             11.955309629217407                     16.360896278304118                       16.360896278304118              -2.8149671716900451e-34     3.7377933706700101e-15  0                     3.7377933706700101e-15   0                     -2.9976757097050158e-17    1.3624141212730589e-17    23                            23                          0                     0.93677365928281686  0.23534667487396518  0.083412456448586206    0.67384185147477382       0.69815061636819031      -0.16586019841430907           1.9672878023937942e-12              3.7272842256650786e-11       
                      -1.5522616524161343e-17                          157                                         3328.8850177253389                  -1.7244522587201931e-08                -3.0264387092434726e-20             -1.5268550684469403e-19         1.0522772610503985e-18             12.648986254052282                     16.360896278304118                       16.360896278304118              -5.268749074598227e-36     7.8413396080812095e-17  0                     7.8413396080812095e-17   0                     -3.0022007622615499e-17    1.3599799344248452e-17    24                            24                          0                     0.93818773820673429  0.20997484716962123  0.093616604794775127    0.66367722053852241       0.71574085936384546      -0.13354844205462132           1.8249625598016054e-12              3.9097804816452389e-11       
                      -1.5554778207307526e-17                          163                                         3444.5159954323699                  -1.8391335435025209e-08                -3.2161683146183415e-20             -1.4241076375587986e-19         1.0864792735837202e-18             13.188964081665416                     16.360896278304118                       16.360896278304118              -8.401151107361107e-38     1.4368959290147488e-18  0                     1.4368959290147488e-18   0                     -3.0053693573089366e-17    1.3554846855954002e-17    25                            25                          0                     0.93917792415904133  0.18271049893296748  0.10186147606414703    0.65610478893098034       0.72834492577939114      -0.10114271919686672           1.8031750994278083e-12              4.0900979915880196e-11       
                      -1.5589195358010789e-17                          169                                         3596.2012513959289                  -1.9258945887411057e-08                -3.4417150703259698e-20             -1.3429365179870019e-19         1.1348037383047625e-18             13.993739872621317                     16.360896278304118                       16.360896278304118              -1.0234585220369525e-39     2.0852213926098752e-20  0                     2.0852213926098752e-20   0                     -3.0066845779930632e-17    1.3477140335413782e-17    26                            26                          0                     0.93958893062283211  0.15337977505412237  0.10826133290515444    0.65110753410350719       0.73632966624508156      -0.068430278752723964           1.8255392266755087e-12              4.2726519142555704e-11       
                      -1.5625151125443669e-17                          175                                         3689.1572982113003                  -1.9737011164059899e-08                -3.5955767432881071e-20             -1.2917596429720349e-19         1.2028430437508202e-18             14.647533903600774                     16.360896278304118                       16.360896278304118              -9.5031940106892739e-42     2.4225727630812038e-22  0                     2.4225727630812038e-22   0                     -3.0056741972515746e-17    1.335792376761846e-17    27                            27                          0                     0.93927318664111681  0.12258653996271514  0.11267276061495136    0.64889472864209063       0.73977161675676839      -0.036077420341201323           1.8407710709517872e-12              4.4567290213507492e-11       
                      -1.5661853465395786e-17                          181                                         3614.7979972799021                  -1.9758769465602124e-08                -3.6702339952123568e-20             -1.2763078814408781e-19         1.2931570843998059e-18             15.339514442036078                     16.360896278304118                       16.360896278304118              -6.5424587149639731e-44     2.2489851723854963e-24  0                     2.2489851723854963e-24   0                     -3.0020960247955936e-17    1.319358048630443e-17    28                            28                          0                     0.93815500774862337  0.090908485014937854  0.11501326310929837    0.64957669258615447       0.73894933137918462      -0.0046055220371533671           1.8549179194670232e-12              4.6422208132974513e-11       
                      -1.5698606002411231e-17                          187                                         3441.9531752652938                  -1.9292609804697196e-08                -3.6752537015439142e-20             -1.2994404567457357e-19         1.4056278760422292e-18             16.159679915698433                     16.360896278304118                       16.360896278304118              -3.0472345759020421e-46     1.6196458227847623e-26  0                     1.6196458227847623e-26   0                     -2.9959277913322493e-17    1.2984988080543604e-17    29                            29                          0                     0.93622743479132764  0.058794385264557665  0.11522562576723699    0.65320618939850039       0.7341954234044199        0.025657015346264439           1.8784927655690929e-12              4.8300700898543604e-11       
                      -1.5734202936855731e-17                          193                                         3248.1542420328847                  -1.8363816228297206e-08                -3.5596934444505197e-20             -1.3602703317107259e-19         1.5350172387716287e-18             16.965975708929989                     16.965975708929989                       16.965975708929989              -8.1325769912042757e-49     9.3618813756747121e-29  0                     9.3618813756747121e-29   0                     -2.9875047178192208e-17    1.2741854035735922e-17    30                            30                          0                     0.9335952243185065   0.02714657671645811  0.11327420260045935    0.65970437718186137       0.72594069829999908       0.054014422751807421           1.8871891887872329e-12              5.0187890087330841e-11       
                      -1.5767635891829695e-17                          199                                         3075.148752795541                   -1.7063093531295234e-08                -3.3432954973953234e-20             -1.4533066288522354e-19         1.6722154625765051e-18             17.35392157742487                      17.35392157742487                        17.35392157742487                4.5895884132150262e-52     4.4730549878217084e-31  0                     4.4730549878217084e-31   0                     -2.9774720236886143e-17    1.2480199545365168e-17    31                            31                          0                     0.93046000740269141 -0.003206413475878469  0.10920815508174016    0.66884678935329844       0.71468915041482806       0.079914332627930074           1.8847434733029415e-12              5.2072633560633779e-11       