# ODT 1.0
# Table Start
# Title: mmArchive Data Table, Tue Apr 25 12:14:00 COT 2017
# Columns: {Oxs_RungeKuttaEvolve:evolve:Total energy} {Oxs_RungeKuttaEvolve:evolve:Energy calc count} {Oxs_RungeKuttaEvolve:evolve:Max dm/dt} Oxs_RungeKuttaEvolve:evolve:dE/dt {Oxs_RungeKuttaEvolve:evolve:Delta E} Oxs_CubicAnisotropy::Energy Oxs_UniformExchange::Energy {Oxs_UniformExchange::Max Spin Ang} {Oxs_UniformExchange::Stage Max Spin Ang} {Oxs_UniformExchange::Run Max Spin Ang} Oxs_ScriptUZeeman::Energy Oxs_ScriptUZeeman::B Oxs_ScriptUZeeman::Bx Oxs_ScriptUZeeman::By Oxs_ScriptUZeeman::Bz Oxs_FixedZeeman::Energy Oxs_Demag::Energy    Oxs_TimeDriver::Iteration {Oxs_TimeDriver::Stage iteration} Oxs_TimeDriver::Stage Oxs_TimeDriver::mx   Oxs_TimeDriver::my   Oxs_TimeDriver::mz   Oxs_TimeDriver::mx_corner Oxs_TimeDriver::my_corner Oxs_TimeDriver::mz_corner {Oxs_TimeDriver::Last time step} {Oxs_TimeDriver::Simulation time}
# Units:                       J                                            {}                                        deg/ns                                 J/s                                  J                                J                           J                              deg                                    deg                                      deg                               J                      mT                   mT                    mT                    mT                      J                    J                       {}                            {}                          {}                   {}                   {}                   {}                      {}                        {}                        {}                            s                                 s                
                      -1.9828370345326746e-17                          1                                           4682.8585813011414                  -4.7217299124541052e-08                 0                               -9.3773711644972784e-22         0                               0                                      0                                        0                               -1.2796801199499635e-18     200                  0                     200                   0                     -3.1992002998750553e-17    1.3444250510490219e-17    0                             0                           0                     0.99975009371095891  0.019995001874219157  0.0099975009371095786    0.99975009371095369       0.019995001874219126       0.009997500937109563           0                                0                         
                      -1.9828465986977262e-17                          7                                           4682.9499352951907                  -4.7072453721796745e-08                -9.564165046186911e-23             -9.3502095194283992e-22         3.7806414930086795e-26             0.0037342224201355636                    0.0037342224201355636                      0.0037342224201355636             -1.2795984821173134e-18     199.99997717869115   0                     199.99997717869115    0                     -3.1992026169398342e-17    1.3444093647683921e-17    1                             1                           0                     0.99975081779369779  0.019993728564498325  0.009927372104885427    0.99975110355084928       0.019995477927307853       0.0098949649749026768           2.0286753988117247e-15              2.0286753988117247e-15       
                      -1.9828845615218813e-17                          13                                          4683.3063567646177                  -4.6493098109077776e-08                -3.7962824154881817e-22             -9.2437082170200675e-22         9.4511617294735393e-25             0.018668790730115594                    0.018668790730115594                      0.018668790730115594             -1.279281048428655e-18     199.99942946805984   0                     199.99942946805984    0                     -3.1992117020888433e-17    1.3443475879803805e-17    2                             2                           0                     0.99975365690276319  0.019988823403008664  0.0096468595273357365    0.99975502016357432       0.019997519644194682       0.0094848236898593084           8.1147015952468989e-15              1.0143376994058624e-14       
                      -1.9830317117009191e-17                          19                                          4684.5877198665303                  -4.4175747310153793e-08                -1.4715017903759805e-21             -8.8520296103194933e-22         1.6668553672481582e-23             0.07836823706381707                    0.07836823706381707                      0.07836823706381707             -1.278157218372582e-18     199.98993605543677   0                     199.98993605543677    0                     -3.1992451129473615e-17    1.3441159765244364e-17    3                             3                           0                     0.99976409779605047  0.019972211533219951  0.0085248732878872371    0.99976872265524563       0.020007886161924424       0.0078443201419699116           3.2458806380987596e-14              4.2602183375046216e-14       
                      -1.9835450162471024e-17                          25                                          4687.3793458492491                  -3.4885502291483551e-08                -5.1330454618337497e-21             -7.8344211051031908e-22         2.7282238830241196e-22             0.31643724582470895                    0.31643724582470895                      0.31643724582470895             -1.2759951103602951e-18     199.835183982248     0                     199.835183982248      0                     -3.199331901572391e-17    1.343437458333539e-17    4                             4                           0                     0.99979121924137315  0.019953867184019758  0.0040392360545984827    0.99979211928416489       0.020084515775689989       0.001284607538946825           1.2983522552395038e-13              1.724374088989966e-13       
                      -1.9843646536603547e-17                          31                                          4671.0614371039946                   3.9777799726216257e-09                -8.1963741325307882e-21             -1.2476524083806964e-21         4.3623349886011625e-21             1.2536863292864038                     1.2536863292864038                       1.2536863292864038              -1.3039145581259282e-18     197.36384273433501   0                     197.36384273433501    0                     -3.1989356623397746e-17    1.3446509962339905e-17    5                             5                           0                     0.99966739448117869  0.020645792753581499 -0.013784771617443155    0.99938643352155188       0.020950703951574404      -0.02483365777677702           5.1934090209580153e-13              6.917783109947981e-13       
                      -1.962636102126575e-17                          37                                          4432.3242760191315                   2.3535740752129481e-07                 2.1728551533780741e-19             -1.4637646020382235e-20         6.3501002414742996e-20             4.5810149994871487                     4.5810149994871487                       4.5810149994871487              -1.7927260085515478e-18     162.88452431417161   0                     162.88452431417161    0                     -3.1873917169811419e-17    1.3991418800702858e-17    6                             6                           0                     0.99605991155660656  0.034394113254847536 -0.077083651475202353    0.99091554157608797       0.032528946375163702      -0.12039950743500148           2.0292070818451743e-12              2.7209853928399726e-12       
                      -1.8716813022182026e-17                          43                                          3716.5449396514987                   5.6228744433847339e-07                 9.0954799908372238e-19             -4.0821799950458408e-20         1.8885048004324458e-19             8.9935868296028776                     8.9935868296028776                       8.9935868296028776              -2.1265898294342197e-18     101.13243166810129   0                     101.13243166810129    0                     -3.1641550120631857e-17    1.4903298247791263e-17    7                             7                           0                     0.98879844126974492  0.06571179103842377 -0.12484544583094404    0.9734332494358553        0.058179141620295798      -0.2033494417461727            2.2382339955771337e-12              4.9592193884171062e-12       
                      -1.7325845076511103e-17                          49                                          3087.4889896182044                   6.2860732693030063e-07                 1.390967945670921e-18             -6.7233395726642162e-20         3.4484405476059303e-19             12.502483310212266                     12.502483310212266                       12.502483310212266              -1.622904823602799e-18     47.858957399758985   0                     47.858957399758985    0                     -3.1397540146117983e-17    1.5416989234175728e-17    8                             8                           0                     0.98117312956618663  0.10596924482488368 -0.14608871032553622    0.95385796682545121       0.093048605875793264      -0.25922380244716664           2.2225964101199738e-12              7.1818157985370804e-12       
                      -1.6139583562275137e-17                          55                                          2789.0460236175227                   4.096165105926224e-07                 1.1862615142359625e-18             -9.1313231679976643e-20         5.029448610705808e-19             14.445413912180534                     14.445413912180534                       14.445413912180534              -8.1696428013491807e-19     17.175650577208543   0                     17.175650577208543    0                     -3.116454738108562e-17    1.5430296469554797e-17    9                             9                           0                     0.97389210565892526  0.14864143654676903 -0.14793505096797813    0.93466975192504931       0.13386865260250314      -0.29541054254800186           2.2277051092739423e-12              9.4095209078110223e-12       
                      -1.5511503162428947e-17                          61                                          2840.1877932286143                   1.667944760987541e-07                 6.2808039984619678e-19             -1.1423190029256694e-19         6.4127458707132932e-19             15.253968385005342                     15.253968385005342                       15.253968385005342              -2.8218579934604237e-19     4.6535219937732606   0                     4.6535219937732606    0                     -3.0930454514177308e-17    1.517409446431564e-17    10                            10                          0                     0.96657670356804049  0.189497465389942   -0.13873374973238306    0.91562894862826749       0.17865477794083873      -0.3197602773653852            2.2368660468995785e-12              1.1646386954710601e-11       
                      -1.5301187712688723e-17                          67                                          3046.2993223127501                   3.8370276917890914e-08                 2.1031544974022364e-19             -1.3647279694813285e-19         7.4635414759384298e-19             15.674147304305643                     15.674147304305643                       15.674147304305643              -6.7383490403121036e-20     0.92909428687214035  0                     0.92909428687214035   0                     -3.0689145627487505e-17    1.4845460054556192e-17    11                            11                          0                     0.95903580085898377  0.22664374378908592 -0.12366939794552936    0.89578232651262768       0.22710053192632074      -0.33681913553437781           2.2729873776994503e-12              1.3919374332410051e-11       
                      -1.5269744816515951e-17                          73                                          3184.8418712761645                  -1.2146304436137108e-09                 3.1442896172772241e-20             -1.5634276608984109e-19         8.0933098113395146e-19             16.115403674832617                     16.115403674832617                       16.115403674832617              -1.1893723063069446e-20     0.14422879397619465  0                     0.14422879397619465   0                     -3.0459050182630635e-17    1.4548210874133644e-17    12                            12                          0                     0.95184531820720764  0.25770086227183331 -0.10575319077190307    0.87544198396442285       0.27700823630959237      -0.3472749774284643            2.2341276642879987e-12              1.6153501996698049e-11       
                      -1.5281614899825873e-17                          85                                          3270.9523566129692                  -8.619776115516446e-09                -1.187008330992884e-20             -1.7150746317145829e-19         8.3605440080055714e-19             16.347760738667048                     16.347760738667048                       16.347760738667048              -1.9417115555420681e-21     0.021647165447939497  0                     0.021647165447939497   0                     -3.0271368078687157e-17    1.4327147952787728e-17    13                            13                          0                     0.94598025245897377  0.28030684320595589 -0.088028643826069661    0.85653694870512309       0.32276640148027447      -0.35130766526083984           1.9941798480526704e-12              1.8147681844750719e-11       
                      -1.5298640464010883e-17                          91                                          3326.2707836177415                  -9.395820637494725e-09                -1.7025564185014012e-20             -1.8290912024544105e-19         8.4408924768277978e-19             16.092490038060205                     16.347760738667048                       16.347760738667048              -2.8988158059471057e-22     0.0030532539376969285  0                     0.0030532539376969285   0                     -3.0120185011016197e-17    1.4160654301148572e-17    14                            14                          0                     0.94125578159425549  0.29669328455587846 -0.070523899373358442    0.83833889832528896       0.36563743221069706      -0.35063123212628988           1.8518762076368039e-12              1.9999558052387525e-11       
                      -1.5315589548820938e-17                          97                                          3350.3318128592123                  -9.1779931121915229e-09                -1.6949084810045616e-20             -1.9133878283965081e-19         8.4537442555043863e-19             15.320044092977543                     16.347760738667048                       16.347760738667048              -3.6384449686787821e-23     0.00036876638539043856  0                     0.00036876638539043856   0                     -2.999822151124454e-17    1.4028632704162502e-17    15                            15                          0                     0.93744442222639168  0.30832909336578551 -0.052632619528733916    0.8198084379602224        0.40776579871678076      -0.34595779089414286           1.8229426150968768e-12              2.18225006674844e-11       
                      -1.5332451314045975e-17                          103                                         3386.3127077138342                  -9.0602022239078239e-09                -1.6861765225035647e-20             -1.9690111688049642e-19         8.4782802612368945e-19             14.250300017159109                     16.347760738667048                       16.347760738667048              -3.5908913520858609e-24     3.5566964510549822e-05  0                     3.5566964510549822e-05   0                     -2.9904505341730247e-17    1.3921130709332432e-17    16                            16                          0                     0.93451579192906964  0.31550444716584752 -0.034083290749344006    0.80041142637651008       0.45019714709818304      -0.33719205129917595           1.8539426953054362e-12              2.3676443362789837e-11       
                      -1.5349369550359106e-17                          109                                         3331.9927334889817                  -9.2439907579966357e-09                -1.6918236313137886e-20             -1.9932623988539261e-19         8.5628330938088556e-19             13.139025005726452                     16.347760738667048                       16.347760738667048              -2.8836315719943291e-25     2.8340181997997092e-06  0                     2.8340181997997092e-06   0                     -2.9842362289254578e-17    1.3836035957763133e-17    17                            17                          0                     0.93257382153920454  0.31797074073551018 -0.015495759696016428    0.78069758332567674       0.4917998410778554       -0.32438249334396702           1.8542125903778437e-12              2.5530655953167682e-11       
                      -1.5367092971290283e-17                          115                                         3156.2208334968541                  -9.7351625947688996e-09                -1.7723420931181578e-20             -1.9856646185215233e-19         8.7325238428557343e-19             12.487450482249923                     16.347760738667048                       16.347760738667048              -1.8331142443102077e-26     1.8142831860904482e-07  0                     1.8142831860904482e-07   0                     -2.9810708188119553e-17    1.3768929312726991e-17    18                            18                          0                     0.93158463087873566  0.31574354309117292  0.0029888799994175807    0.76085673649598951       0.53242044922793874      -0.30742363927552252           1.872789630620939e-12              2.7403445583788619e-11       
                      -1.5386619442836381e-17                          121                                         2923.9380906230067                  -1.0533556051584182e-08                -1.9526471546091503e-20             -1.9451278186722648e-19         8.990968355720672e-19             12.116884465299353                     16.347760738667048                       16.347760738667048              -8.5822219551988872e-28     8.6899582678236754e-09  0                     8.6899582678236754e-09   0                     -2.9807842688376414e-17    1.3716639192693413e-17    19                            19                          0                     0.93149508401176251  0.30862568936954421  0.021414496306013903    0.74094485976384095       0.57216902543508841      -0.28595038291588354           1.9316271939563534e-12              2.9335072777744975e-11       
                      -1.5408067476611109e-17                          127                                         2647.2949632307732                  -1.1604804871695262e-08                -2.1448033774735208e-20             -1.8739875157930492e-19         9.3044635726496487e-19             11.808594740112351                     16.347760738667048                       16.347760738667048              -3.1590262730971676e-29     3.326474146675375e-10  0                     3.326474146675375e-10   0                     -2.9830524170101244e-17    1.3679409087836064e-17    20                            20                          0                     0.93220388031566404  0.29676939209929332  0.038952380232933848    0.72196403576143664       0.60920050230843781      -0.2607150604363333            1.9415731891328182e-12              3.1276645966877792e-11       
                      -1.5431852676959923e-17                          133                                         2576.9879810152952                  -1.2895148465468589e-08                -2.3785200348804151e-20             -1.7776333592725974e-19         9.6332292978137736e-19             11.265804460355978                     16.347760738667048                       16.347760738667048              -9.2247434135486878e-31     1.0277795874189514e-11  0                     1.0277795874189514e-11   0                     -2.9872278341174292e-17    1.3654866070361174e-17    21                            21                          0                     0.93350869816169646  0.28048156939692975  0.055223474446949326    0.70440518949134323       0.64265361021292544      -0.23229095397140437           1.9444069699091655e-12              3.3221052936786958e-11       
                      -1.5460317481128793e-17                          139                                         2882.4023788017644                  -1.4445532220858559e-08                -2.8464804168878676e-20             -1.6554030657746129e-19         9.9627901804311984e-19             11.439858304767656                     16.347760738667048                       16.347760738667048              -1.6211244535284866e-32     1.9593876078359201e-13  0                     1.9593876078359201e-13   0                     -2.9929111761544656e-17    1.3638055568950222e-17    22                            22                          0                     0.9352847425482701   0.25855088074542742  0.070920350673618765    0.68763146234697425       0.67373618599002416      -0.19894680107011337           2.0842294591341641e-12              3.5305282395921123e-11       
                      -1.5490223866839051e-17                          151                                         3137.2292942278827                  -1.5964721547868343e-08                -2.9906385710255501e-20             -1.5328094841463196e-19         1.024686743212971e-18             11.965421959944198                     16.347760738667048                       16.347760738667048              -2.8034193618500855e-34     3.7423780855252893e-15  0                     3.7423780855252893e-15   0                     -2.9984629989154199e-17    1.3623000327516808e-17    23                            23                          0                     0.93701968716106954  0.23409407883361555  0.083828005754084001    0.67415580625423277       0.69790582496409193      -0.16541789197330575           1.966966762915532e-12              3.7272249158836653e-11       
                      -1.5520591840830313e-17                          157                                         3326.6576493660368                  -1.7302094258066724e-08                -3.0367973991257558e-20             -1.4230666962321239e-19         1.0523674984196612e-18             12.659958593984591                     16.347760738667048                       16.347760738667048              -5.244400070503365e-36     7.8562393558199147e-17  0                     7.8562393558199147e-17   0                     -3.0029436101403314e-17    1.3598783431776553e-17    24                            24                          0                     0.93841987816885331  0.20860808178129417  0.093972811345656215    0.66401887362305301       0.71544925330463105      -0.13317105049999103           1.824680042185356e-12              3.9096929201022011e-11       
                      -1.5552849228687996e-17                          163                                         3441.8937731352748                  -1.8441806831825306e-08                -3.225738785767617e-20             -1.3277732764986297e-19         1.0867720328862638e-18             13.201913608303713                     16.347760738667048                       16.347760738667048              -8.3527841777094443e-38     1.4401866465969093e-18  0                     1.4401866465969093e-18   0                     -3.0060410325271056e-17    1.3553566391346661e-17    25                            25                          0                     0.93938782266472054  0.18124352574036684  0.10214698115936616    0.65647040083646346       0.72801597872466994      -0.10083557152256989           1.8030421016210165e-12              4.0899971302643025e-11       
                      -1.5587345341341446e-17                          169                                         3593.0152208933227                  -1.9297766728491616e-08                -3.4496112653460319e-20             -1.2529991929019277e-19         1.1353741275874074e-18             14.009956209214026                     16.347760738667048                       16.347760738667048              -1.0159538773915742e-39     2.0910471337576506e-20  0                     2.0910471337576506e-20   0                     -3.0072601726487814e-17    1.3475182176849152e-17    26                            26                          0                     0.93976880395274309  0.1518309088109068   0.10846262252261503    0.65149385548747285       0.73597116491004733      -0.068201366438855868           1.825370271710924e-12              4.2725341574353947e-11       
                      -1.5623355560196955e-17                          175                                         3685.4534189163451                  -1.9760145309050297e-08                -3.6010218855505618e-20             -1.2065351310650044e-19         1.2037555924570539e-18             14.664656041114023                     16.347760738667048                       16.347760738667048              -9.4095598217361007e-42     2.4305876299802927e-22  0                     2.4305876299802927e-22   0                     -3.0061351484191441e-17    1.3354893844643933e-17    27                            27                          0                     0.93941723388098264  0.1209784583786587   0.11277753140568755    0.64929698290582705       0.73939258662402285      -0.035931209457614764           1.8406121147419488e-12              4.4565953689095893e-11       
                      -1.5660080007037927e-17                          181                                         3610.6994955847704                  -1.9763157496744692e-08                -3.672444684097419e-20             -1.1936163968711154e-19         1.2944452478848317e-18             15.357302402416305                     16.347760738667048                       16.347760738667048              -6.449768907487331e-44     2.2578430836854207e-24  0                     2.2578430836854207e-24   0                     -3.0024325636454695e-17    1.3189162021219048e-17    28                            28                          0                     0.93826017613920787  0.08926894867733004  0.11501055878445918    0.64998889822122163       0.7385591915697336       -0.0045443565552856944           1.8547273815128052e-12              4.6420681070608698e-11       
                      -1.5696817389547617e-17                          187                                         3437.4983711420286                  -1.9276503666976905e-08                -3.6737382509691657e-20             -1.2167658457095314e-19         1.4072816755808207e-18             16.181346602856635                     16.347760738667048                       16.347760738667048              -2.9761330617152137e-46     1.6272307193519347e-26  0                     1.6272307193519347e-26   0                     -2.9961404079919224e-17    1.297898159936174e-17    29                            29                          0                     0.93629387749747595  0.057154868742670013  0.11510596892955895    0.65362127747690346       0.73380374645491775       0.025633503932157929           1.8782753975825252e-12              4.8298956468191221e-11       
                      -1.5732366949344998e-17                          193                                         3243.3000055228663                  -1.8327225197569265e-08                -3.5549559797384853e-20             -1.2749862726809164e-19         1.5369898812290184e-18             16.989164183925503                     16.989164183925503                       16.989164183925503              -7.6842099984546961e-49     9.4039173250992684e-29  0                     9.4039173250992684e-29   0                     -2.9876051769615074e-17    1.2734193566309148e-17    30                            30                          0                     0.93362661780047063  0.025535269414884453  0.11303107295545123    0.66011607772719705       0.72555483240566065       0.05391569524566972           1.8873237999185266e-12              5.0186280268109749e-11       
                      -1.576569739400528e-17                          199                                         3070.0268137623771                  -1.7009068404306096e-08                -3.3330444660279829e-20             -1.3629250337505862e-19         1.6742908797073811e-18             17.380909903048352                     17.380909903048352                       17.380909903048352               6.8308226944200819e-52     4.5060621794066498e-31  0                     4.5060621794066498e-31   0                     -2.9774918370278645e-17    1.2471222599941043e-17    31                            31                          0                     0.93046619907120742 -0.0047372450867674432  0.10884171689968122    0.6692422702077423        0.71432350620048768       0.079732874316000471           1.883807092519356e-12              5.2070087360629104e-11       