# ODT 1.0
# Table Start
# Title: mmArchive Data Table, Tue Apr 25 12:14:27 COT 2017
# Columns: {Oxs_RungeKuttaEvolve:evolve:Total energy} {Oxs_RungeKuttaEvolve:evolve:Energy calc count} {Oxs_RungeKuttaEvolve:evolve:Max dm/dt} Oxs_RungeKuttaEvolve:evolve:dE/dt {Oxs_RungeKuttaEvolve:evolve:Delta E} Oxs_CubicAnisotropy::Energy Oxs_UniformExchange::Energy {Oxs_UniformExchange::Max Spin Ang} {Oxs_UniformExchange::Stage Max Spin Ang} {Oxs_UniformExchange::Run Max Spin Ang} Oxs_ScriptUZeeman::Energy Oxs_ScriptUZeeman::B Oxs_ScriptUZeeman::Bx Oxs_ScriptUZeeman::By Oxs_ScriptUZeeman::Bz Oxs_FixedZeeman::Energy Oxs_Demag::Energy    Oxs_TimeDriver::Iteration {Oxs_TimeDriver::Stage iteration} Oxs_TimeDriver::Stage Oxs_TimeDriver::mx   Oxs_TimeDriver::my   Oxs_TimeDriver::mz   Oxs_TimeDriver::mx_corner Oxs_TimeDriver::my_corner Oxs_TimeDriver::mz_corner {Oxs_TimeDriver::Last time step} {Oxs_TimeDriver::Simulation time}
# Units:                       J                                            {}                                        deg/ns                                 J/s                                  J                                J                           J                              deg                                    deg                                      deg                               J                      mT                   mT                    mT                    mT                      J                    J                       {}                            {}                          {}                   {}                   {}                   {}                      {}                        {}                        {}                            s                                 s                
                      -1.9828383133559315e-17                          1                                           4682.8922599123753                  -4.7218684943693991e-08                 0                               -9.505253490201057e-22         0                               0                                      0                                        0                               -1.2796801199499635e-18     200                  0                     200                   0                     -3.1992002998750553e-17    1.3444250510490219e-17    0                             0                           0                     0.99975009371095891  0.019995001874219157  0.0099975009371095786    0.99975009371095369       0.019995001874219126       0.009997500937109563           0                                0                         
                      -1.9828478777334649e-17                          7                                           4682.9836196916431                  -4.7073840818746934e-08                -9.5643775277622786e-23             -9.4777216532288171e-22         3.7805871182745811e-26             0.00373419556565821                    0.00373419556565821                      0.00373419556565821             -1.2795985205371592e-18     199.9999771790194    0                     199.9999771790194     0                     -3.1992026169212676e-17    1.344409364677464e-17    1                             1                           0                     0.9997508177878961   0.019993729164775677  0.0099273714805226988    0.99975110354299879       0.019995478514037237       0.0098949645835293299           2.02866080890312e-15              2.02866080890312e-15       
                      -1.982885841412222e-17                          13                                          4683.3400646801474                  -4.6494490221743872e-08                -3.796367875727726e-22             -9.369768839463575e-22         9.4510258464909787e-25             0.018668656505515524                    0.018668656505515524                      0.018668656505515524             -1.279281238030014e-18     199.99942947626616   0                     199.99942947626616    0                     -3.1992117019959814e-17    1.344347587564897e-17    2                             2                           0                     0.99975365687374473  0.019988826364718264  0.0096468564057974569    0.99975502012491013       0.019997522519191024       0.0094848217317229835           8.1146432356124802e-15              1.0143304044515601e-14       
                      -1.9830329950824114e-17                          19                                          4684.6215279058788                  -4.4177158054979059e-08                -1.4715367018997975e-21             -8.97275231803445e-22         1.6668314397686973e-23             0.078367674272580456                    0.078367674272580456                      0.078367674272580456             -1.2781579727066786e-18     199.98993620018916   0                     199.98993620018916    0                     -3.1992451125567151e-17    1.3441159754367118e-17    3                             3                           0                     0.99976409767397345  0.019972223305827545  0.0085248601801957303    0.99976872250270399       0.020007897251552678       0.0078443118948426978           3.2458572942449921e-14              4.2601876986965518e-14       
                      -1.9835463146515555e-17                          25                                          4687.4136507656085                  -3.4886970883299944e-08                -5.1331956914345618e-21             -7.9412806898531741e-22         2.7281850710759541e-22             0.3164349928892225                     0.3164349928892225                       0.3164349928892225              -1.2759974827137278e-18     199.83518635192328   0                     199.83518635192328    0                     -3.1993318999744695e-17    1.3434374645504746e-17    4                             4                           0                     0.99979121874202193  0.019953904045997999  0.0040391829242665146    0.99979211882234287       0.020084544710665217       0.0012845736809434505           1.2983429176979968e-13              1.724361687567652e-13       
                      -1.9843660293132879e-17                          31                                          4671.0881914341398                   3.9759543837218605e-09                -8.1971466173243752e-21             -1.2646755503774558e-21         4.3622778521937035e-21             1.2536784631186864                     1.2536784631186864                       1.2536784631186864              -1.3039132702797792e-18     197.36388040084759   0                     197.36388040084759    0                     -3.1989356551937604e-17    1.3446511926782689e-17    5                             5                           0                     0.99966739224804957  0.020645768422005609 -0.013784993639337434    0.99938643383276715       0.020950565063988184      -0.024833807949374502           5.1933716707919873e-13              6.9177333583596393e-13       
                      -1.9626378984203765e-17                          37                                          4432.3430232338942                   2.3534493154705269e-07                 2.1728130892911881e-19             -1.4837994430961276e-20         6.3503769373828805e-20             4.5811194196903164                     4.5811194196903164                       4.5811194196903164              -1.7926176950619225e-18     162.88345411613989   0                     162.88345411613989    0                     -3.1873910892574093e-17    1.3991483828489384e-17    6                             6                           0                     0.99605971539293969  0.034392261187402108 -0.07708681071306174    0.9909151345635937        0.032525286945015872      -0.12040340982769791           2.0292556022368645e-12              2.7210289380728286e-12       
                      -1.8716874307149255e-17                          43                                          3716.5058703006207                   5.6223362703149163e-07                 9.0950467705450534e-19             -4.1380653298650049e-20         1.8886498512950712e-19             8.9939608180446928                     8.9939608180446928                       8.9939608180446928              -2.1263428531031091e-18     101.12935784510299   0                     101.12935784510299    0                     -3.1641530748591211e-17    1.4903514962714207e-17    7                             7                           0                     0.98879783589347592  0.065706156526029957 -0.12485251643718884    0.9734318218317326        0.058167819486037949      -0.20335824706841604           2.2383009755666155e-12              4.9593299136394441e-12       
                      -1.7326041297816826e-17                          49                                          3087.3912773313532                   6.2852228626905403e-07                 1.3908330093324293e-18             -6.8153403430201838e-20         3.4488020181086746e-19             12.503188657222548                     12.503188657222548                       12.503188657222548              -1.6226518622477694e-18     47.856020723001272   0                     47.856020723001272    0                     -3.1397510683917113e-17    1.541739444996739e-17    8                             8                           0                     0.98117220887240908  0.10595922922373432 -0.14610064457344979    0.95385557732299386       0.093027681380161251      -0.25923796550908973           2.2226399668840147e-12              7.1819698805234584e-12       
                      -1.6139942013441724e-17                          55                                          2788.9330544150143                   4.0954800485671911e-07                 1.1860992843751018e-18             -9.2563004233069783e-20         5.0301381849652149e-19             14.44651633500205                      14.44651633500205                        14.44651633500205               -8.1681347089346766e-19     17.173994670504932   0                     17.173994670504932    0                     -3.1164503796087547e-17    1.543092443927584e-17    9                             9                           0                     0.97389074362773609  0.14862832704413764 -0.14795426067074341    0.93466631444260162       0.13383819225049176      -0.29543232368741768           2.2277358078906749e-12              9.409705688414133e-12       
                      -1.5511969618407138e-17                          61                                          2840.04677273269                     1.6676238953176604e-07                 6.2797239503459666e-19             -1.1579707781192728e-19         6.4138477448974889e-19             15.255518821222745                     15.255518821222745                       15.255518821222745              -2.8212972956295308e-19     4.652928065592679    0                     4.652928065592679     0                     -3.0930382329246604e-17    1.5174954743724601e-17    10                            10                          0                     0.96657444778895563  0.18948399641160649 -0.13876275811793709    0.91562420483410012       0.17861615945249171      -0.31979225532751537           2.2368789038769889e-12              1.1646584592291122e-11       
                      -1.5301696436688786e-17                          67                                          3046.2210872439896                   3.8359867697161943e-08                 2.102731817183415e-19             -1.3834685654625971e-19         7.4651014914171328e-19             15.676134271501811                     15.676134271501811                       15.676134271501811              -6.7368934717829248e-20     0.9289321571508915   0                     0.9289321571508915    0                     -3.0689014935232724e-17    1.4846524140666314e-17    11                            11                          0                     0.95903171672602194  0.22663433424344145 -0.12370994868261956    0.89577553759186934       0.22705681656810478      -0.33686385959572213           2.273015840894649e-12              1.3919600433185771e-11       
                      -1.5270266421513116e-17                          73                                          3184.8560045176605                  -1.2175872000034796e-09                 3.1430015175668414e-20             -1.5849592411315582e-19         8.0952459645683376e-19             16.117778287152312                     16.117778287152312                       16.117778287152312              -1.1891117477584139e-20     0.14419780278828231  0                     0.14419780278828231   0                     -3.045882794299683e-17    1.454942396661762e-17    12                            12                          0                     0.9518383732186505   0.25769978043292452 -0.10580588131236041    0.87543259458850942       0.27696270179099763      -0.34733341611950452           2.234141473071214e-12              1.6153741906256984e-11       
                      -1.5282140023825656e-17                          85                                          3271.0160055954962                  -8.6210733331101375e-09                -1.1873602312536492e-20             -1.7387649964297598e-19         8.3626780496603125e-19             16.350377741800372                     16.350377741800372                       16.350377741800372              -1.9414049661246176e-21     0.021643000205700973  0                     0.021643000205700973   0                     -3.0271036743158553e-17    1.4328446818975967e-17    13                            13                          0                     0.94596989822370459  0.28031652088333719 -0.088092640272199915    0.85652513099632743       0.32272097235740332      -0.35137850651071795           1.9941311623711827e-12              1.8147873068628167e-11       
                      -1.5299167062722335e-17                          91                                          3326.4366415374452                  -9.3965614179875177e-09                -1.7027038896682527e-20             -1.8544395105394383e-19         8.4430678625412848e-19             16.095207558400592                     16.350377741800372                       16.350377741800372              -2.8985712519232708e-22     0.0030527574660464403  0                     0.0030527574660464403   0                     -3.0119723963921233e-17    1.4161983923123906e-17    14                            14                          0                     0.94124137387253826  0.2967165018186349  -0.070597892385055025    0.83832422141846674       0.36559466706200616      -0.35071329520409683           1.8518316159764276e-12              1.9999704684604595e-11       
                      -1.5316116734459781e-17                          97                                          3350.5779393931839                  -9.1779437116115724e-09                -1.6949671737440048e-20             -1.9400043395970193e-19         8.455815002470174e-19             15.322688933090959                     16.350377741800372                       16.350377741800372              -3.6383187859255654e-23     0.00036870589221312645  0                     0.00036870589221312645   0                     -2.9997607459467698e-17    1.4029946041908462e-17    15                            15                          0                     0.9374252331083659   0.30836898585404893 -0.052715266113549396    0.81979004724863236       0.40772859112671611      -0.34604988637644668           1.8229315546855124e-12              2.1822636239290108e-11       
                      -1.5332977435462008e-17                          103                                         3386.6638937508833                  -9.0589392874547447e-09                -1.6860701002240435e-20             -1.9965202129343715e-19         8.4801214361319221e-19             14.252399018739816                     16.350377741800372                       16.350377741800372              -3.5908848734804921e-24     3.5560167679588508e-05  0                     3.5560167679588508e-05   0                     -2.9903718155039107e-17    1.3922384188142214e-17    16                            16                          0                     0.93449119234497191  0.31556418211345078 -0.034173290930146497    0.80038849282575719       0.45016795855104197      -0.33729264689867738           1.8539526921718823e-12              2.367658893146199e-11       
                      -1.5349891780183301e-17                          109                                         3332.4012800620831                  -9.2411535248692637e-09                -1.6914344721291407e-20             -2.0212448804622509e-19         8.5643661492518212e-19             13.141870003235818                     16.350377741800372                       16.350377741800372              -2.8838432551091591e-25     2.833495460306734e-06  0                     2.833495460306734e-06   0                     -2.9841395107933739e-17    1.3837191489255806e-17    17                            17                          0                     0.93254359712292922  0.31805274786784221 -0.015591821736298517    0.78066992187113171       0.49177962102049189      -0.32448966668266488           1.8541973216422239e-12              2.5530786253104213e-11       
                      -1.5367608222082526e-17                          115                                         3156.7431433733755                  -9.7304795780297562e-09                -1.7716441899214062e-20             -2.0136916205817102e-19         8.733722197508002e-19             12.490002268462534                     16.350377741800372                       16.350377741800372              -1.8333608952010362e-26     1.8139145693520987e-07  0                     1.8139145693520987e-07   0                     -2.9809561335711195e-17    1.376995007426965e-17    18                            18                          0                     0.9315487917409746   0.31585020013095949  0.0028887275335264871    0.76082376591086942       0.53241084435582631      -0.3075348766022889            1.8727930494684608e-12              2.7403579302572673e-11       
                      -1.538712396116575e-17                          121                                         2924.464101806549                   -1.0526850662459942e-08                -1.951573908322993e-20             -1.972748717632543e-19         8.9918559338049055e-19             12.119121761671565                     16.350377741800372                       16.350377741800372              -8.5837125512039171e-28     8.6877041789353723e-09  0                     8.6877041789353723e-09   0                     -2.9806526563890195e-17    1.3717491881965581e-17    19                            19                          0                     0.93145395512156859  0.30875938188078833  0.021312532081181994    0.74090595923092839       0.57217155764950001      -0.28606271680909068           1.9316529550451315e-12              2.9335232257617802e-11       
                      -1.5408557002865449e-17                          127                                         2647.7916028966588                  -1.1596112755324797e-08                -2.1433041699697272e-20             -1.9007675470397066e-19         9.3051005751758397e-19             11.810574041710776                     16.350377741800372                       16.350377741800372              -3.1598865119460454e-29     3.3255632576096491e-10  0                     3.3255632576096491e-10   0                     -2.9829068167723441e-17    1.3680077862075977e-17    20                            20                          0                     0.93215838024135678  0.29693151460090061  0.038850820066241729    0.72191931808799115       0.60921498675307095      -0.2608258084576579            1.9415716172429554e-12              3.1276803874860754e-11       
                      -1.5432323032722647e-17                          133                                         2577.1993379006899                  -1.2884720859276955e-08                -2.3766029857194834e-20             -1.8031959501696751e-19         9.6336739899695051e-19             11.267732118538422                     16.350377741800372                       16.350377741800372              -9.2290773577269002e-31     1.0275609925353678e-11  0                     1.0275609925353678e-11   0                     -2.9870725023852144e-17    1.3655354187150436e-17    21                            21                          0                     0.93346015699537954  0.28067303987217063  0.055124711666568391    0.70435491150896345       0.64267933652251841      -0.2323977633978849            1.9443645285844791e-12              3.3221168403445232e-11       
                      -1.5460763793265477e-17                          139                                         2882.6638486797415                  -1.4433810882127472e-08                -2.8440760542833276e-20             -1.6793442070868356e-19         9.9630619950575617e-19             11.438034722022378                     16.350377741800372                       16.350377741800372              -1.6223493581985695e-32     1.9591789692339389e-13  0                     1.9591789692339389e-13   0                     -2.992751529229205e-17    1.3638379720229516e-17    22                            22                          0                     0.935234852884126    0.25877379371589032  0.070827778765704549    0.68757523088588779       0.67377345111021192      -0.19904654303437955           2.0841683853438034e-12              3.5305336788789035e-11       
                      -1.5490647638093208e-17                          151                                         3137.5706898344674                  -1.595268411172302e-08                -2.9883844827726789e-20             -1.5550396084937565e-19         1.0246954798438494e-18             11.963405024307145                     16.350377741800372                       16.350377741800372              -2.8057237729641547e-34     3.7414615363405772e-15  0                     3.7414615363405772e-15   0                     -2.9983063964972102e-17    1.3623224807884421e-17    23                            23                          0                     0.93697074890537801  0.23434389757454516  0.083745328585380516    0.67409316067466007       0.69795472895809196      -0.1655060768790805            1.9670308812930492e-12              3.7272367670082083e-11       
                      -1.5520994972270803e-17                          157                                         3327.1021479421165                  -1.7290627355153235e-08                -3.0347334177596083e-20             -1.4436899152213009e-19         1.0523491821052726e-18             12.657770134164695                     16.350377741800372                       16.350377741800372              -5.2492604615827882e-36     7.8532602999003004e-17  0                     7.8532602999003004e-17   0                     -3.0027959362967858e-17    1.3598984200113913e-17    24                            24                          0                     0.93837373009274583  0.20888062175469269  0.09390200368358359    0.66395070045861915       0.71550749254822288      -0.13324629414531952           1.8247364701800195e-12              3.9097104140262103e-11       
                      -1.555323331595733e-17                          163                                         3442.4169606693049                  -1.8431770057643847e-08                -3.2238343686532588e-20             -1.3469190691106751e-19         1.0867132986299898e-18             13.199332444553615                     16.350377741800372                       16.350377741800372              -8.362438741673924e-38     1.4395283807253382e-18  0                     1.4395283807253382e-18   0                     -3.0059076045828495e-17    1.3553821338152244e-17    25                            25                          0                     0.93934612643214055  0.18153599065940967  0.10209030994653628    0.65639744686915646       0.72808166410580244      -0.10089681239887222           1.8030687399986002e-12              4.0900172880260707e-11       
                      -1.558771375035067e-17                          169                                         3593.650531628004                   -1.929006739381947e-08                -3.4480434393333763e-20             -1.2708820760545743e-19         1.1352600214383689e-18             14.006723581416296                     16.350377741800372                       16.350377741800372              -1.0174520259991157e-39     2.0898812296282233e-20  0                     2.0898812296282233e-20   0                     -3.0071459368160894e-17    1.3475573803977312e-17    26                            26                          0                     0.93973310525502785  0.15213963052880525  0.10842278241909095    0.65141677068234949       0.73604274297747618      -0.068247013559822517           1.8254041003129164e-12              4.2725576980573621e-11       
                      -1.5623713203620964e-17                          175                                         3686.1918507701985                  -1.9755586444063758e-08                -3.599945327030117e-20             -1.2234938787284349e-19         1.2035732941150927e-18             14.661243254180269                     16.350377741800372                       16.350377741800372              -9.4282545608268742e-42     2.4289829167614857e-22  0                     2.4289829167614857e-22   0                     -3.0060437773033964e-17    1.3355500663170749e-17    27                            27                          0                     0.93938868040731061  0.12129889963107197  0.1127569731534863     0.64921672204819436       0.73946825719342824      -0.035960375113391098           1.8406439535265739e-12              4.4566220934100198e-11       
                      -1.5660433355198475e-17                          181                                         3611.5165398017803                  -1.976234540438096e-08                -3.6720151577513745e-20             -1.2100873129545578e-19         1.2941881633938094e-18             15.353757417666772                     16.350377741800372                       16.350377741800372              -6.4682799051877109e-44     2.2560688044134436e-24  0                     2.2560688044134436e-24   0                     -3.0023659685078973e-17    1.3190046897782145e-17    28                            28                          0                     0.93823936515871786  0.089595559604251127  0.1150114610936369     0.64990665636761968       0.73863707629366993      -0.0045565764922131666           1.8547655375648832e-12              4.642098647166508e-11       
                      -1.5697173884792267e-17                          187                                         3438.3863577605803                  -1.9279781307420395e-08                -3.6740529593785511e-20             -1.2332506807336666e-19         1.4069519010276602e-18             16.177027180570366                     16.350377741800372                       16.350377741800372              -2.9903382375915481e-46     1.6257107977894126e-26  0                     1.6257107977894126e-26   0                     -2.9960984491852443e-17    1.2980183774105882e-17    29                            29                          0                     0.93628076537038885  0.057481361415451869  0.11513021241633982    0.65353846612936595       0.73388193692578207       0.025638152598809267           1.8783189119626834e-12              4.8299305383627766e-11       
                      -1.5732733017196626e-17                          193                                         3244.2674181849256                  -1.8334584230469441e-08                -3.5559132404356266e-20             -1.2920068268524814e-19         1.5365968630124583e-18             16.984542281162991                     16.984542281162991                       16.984542281162991              -7.7737565157227911e-49     9.3954885026392084e-29  0                     9.3954885026392084e-29   0                     -2.9875854695202418e-17    1.2735725497678582e-17    30                            30                          0                     0.93362045922507508  0.025856014942501091  0.11307994933196683    0.66003394839399243       0.72563186422733583       0.053935324316157017           1.8872971033428127e-12              5.0186602486970577e-11       
                      -1.5766084001061107e-17                          199                                         3071.0472166954733                  -1.7019891337408254e-08                -3.3350983864483928e-20             -1.3809731634990801e-19         1.6738778244102017e-18             17.375528204746978                     17.375528204746978                       17.375528204746978               6.3822466720802278e-52     4.4994470564325072e-31  0                     4.4994470564325072e-31   0                     -2.9774880538294878e-17    1.2473016029173478e-17    31                            31                          0                     0.93046501682171445 -0.004432660413625179  0.10891516834854822    0.66916337930495839       0.71439651057921005       0.079768969108446289           1.8839936815560603e-12              5.207059616852664e-11       