# ODT 1.0
# Table Start
# Title: mmArchive Data Table, Tue Apr 25 12:13:08 COT 2017
# Columns: {Oxs_RungeKuttaEvolve:evolve:Total energy} {Oxs_RungeKuttaEvolve:evolve:Energy calc count} {Oxs_RungeKuttaEvolve:evolve:Max dm/dt} Oxs_RungeKuttaEvolve:evolve:dE/dt {Oxs_RungeKuttaEvolve:evolve:Delta E} Oxs_CubicAnisotropy::Energy Oxs_UniformExchange::Energy {Oxs_UniformExchange::Max Spin Ang} {Oxs_UniformExchange::Stage Max Spin Ang} {Oxs_UniformExchange::Run Max Spin Ang} Oxs_ScriptUZeeman::Energy Oxs_ScriptUZeeman::B Oxs_ScriptUZeeman::Bx Oxs_ScriptUZeeman::By Oxs_ScriptUZeeman::Bz Oxs_FixedZeeman::Energy Oxs_Demag::Energy    Oxs_TimeDriver::Iteration {Oxs_TimeDriver::Stage iteration} Oxs_TimeDriver::Stage Oxs_TimeDriver::mx   Oxs_TimeDriver::my   Oxs_TimeDriver::mz   Oxs_TimeDriver::mx_corner Oxs_TimeDriver::my_corner Oxs_TimeDriver::mz_corner {Oxs_TimeDriver::Last time step} {Oxs_TimeDriver::Simulation time}
# Units:                       J                                            {}                                        deg/ns                                 J/s                                  J                                J                           J                              deg                                    deg                                      deg                               J                      mT                   mT                    mT                    mT                      J                    J                       {}                            {}                          {}                   {}                   {}                   {}                      {}                        {}                        {}                            s                                 s                
                      -1.9828344569045471e-17                          1                                           4682.7906979558738                  -4.7214505920152306e-08                 0                               -9.1196083517506037e-22         0                               0                                      0                                        0                               -1.2796801199499635e-18     200                  0                     200                   0                     -3.1992002998750553e-17    1.3444250510490219e-17    0                             0                           0                     0.99975009371095891  0.019995001874219157  0.0099975009371095786    0.99975009371095369       0.019995001874219126       0.009997500937109563           0                                0                         
                      -1.9828440206413237e-17                          7                                           4682.8820402889942                  -4.7069657941828432e-08                -9.5637367713013943e-23             -9.0931928927579941e-22         3.7807510954768828e-26             0.0037342765497808961                    0.0037342765497808961                      0.0037342765497808961             -1.279598404675627e-18     199.99997717802947   0                     199.99997717802947    0                     -3.1992026169772571e-17    1.3444093649516722e-17    1                             1                           0                     0.99975081780539299  0.019993727354537968  0.00992737336339535    0.99975110356667352       0.019995476744655717       0.0098949657637838907           2.0287048071883565e-15              2.0287048071883565e-15       
                      -1.9828819817429536e-17                          13                                          4683.2384143523732                  -4.6490292219236911e-08                -3.7961101629583647e-22             -8.9896173650441824e-22         9.4514356270904349e-25             0.018669061282019457                    0.018669061282019457                      0.018669061282019457             -1.2792806662549505e-18     199.99942945151849   0                     199.99942945151849    0                     -3.1992117022760221e-17    1.3443475888178577e-17    2                             2                           0                     0.99975365696125718  0.019988817433180713  0.0096468658193280109    0.99975502024150786       0.01999751384915277       0.0094848276368224363           8.114819228753426e-15              1.0143524035941782e-14       
                      -1.9830291248852642e-17                          19                                          4684.519575640019                   -4.4172903864686887e-08                -1.4714314231042411e-21             -8.6086982817745018e-22         1.6669035975632739e-23             0.078369371462668577                    0.078369371462668577                      0.078369371462668577             -1.2781556978818502e-18     199.98993576366115   0                     199.98993576366115    0                     -3.1992451137347759e-17    1.344115978716917e-17    3                             3                           0                     0.99976409804211697  0.019972187803495176  0.0085248997086389312    0.99976872296271913       0.020007863808877452       0.0078443367654520927           3.2459276915013704e-14              4.2602800950955486e-14       
                      -1.983542399151258e-17                          25                                          4687.3102000885847                  -3.4882542248865428e-08                -5.1327426599406717e-21             -7.6190338058876757e-22         2.7283021157125878e-22             0.31644178698577241                    0.31644178698577241                      0.31644178698577241             -1.2759903284309462e-18     199.83517920572353   0                     199.83517920572353    0                     -3.1993319047932879e-17    1.3434374458020264e-17    4                             4                           0                     0.99979122024790301  0.019953792881691444  0.0040393431472471614    0.99979212021504738       0.020084457451867523       0.0012846757851211084           1.2983710766005482e-13              1.7243990861101029e-13       
                      -1.9843618808620301e-17                          31                                          4671.0075107197636                   3.9814595736164013e-09                -8.1948171077187311e-21             -1.2133408315693077e-21         4.3624501563890314e-21             1.2537021846512049                     1.2537021846512049                       1.2537021846512049              -1.3039171531651639e-18     197.36376681044047   0                     197.36376681044047    0                     -3.1989356767440296e-17    1.344650600266034e-17    5                             5                           0                     0.99966739898250956  0.020645841784904442 -0.013784324097672338    0.99938643289435913       0.020950983894276052      -0.02483335507630216           5.1934843064021926e-13              6.9178833925122958e-13       
                      -1.9626324822468271e-17                          37                                          4432.2864848995905                   2.3538254574703367e-07                 2.1729398615202235e-19             -1.4233878429094075e-20         6.3495425286931662e-20             4.5808045196151062                     4.5808045196151062                       4.5808045196151062              -1.7929442835204543e-18     162.88668152288736   0                     162.88668152288736    0                     -3.1873929822529502e-17    1.3991287736723848e-17    6                             6                           0                     0.99606030695404701  0.034397845383166925 -0.077077283465723442    0.99091636197694988       0.032536321144894222      -0.12039164116452697           2.0291092777853482e-12              2.7208976170365776e-12       
                      -1.8716689556748472e-17                          43                                          3716.6236757795168                   5.6239588877624769e-07                 9.0963526571980391e-19             -3.9695536973405366e-20         1.8882124653161362e-19             8.9928330568118824                     8.9928330568118824                       8.9928330568118824              -2.1270875583808134e-18     101.13862733612903   0                     101.13862733612903    0                     -3.1641589169386356e-17    1.4902861461460491e-17    7                             7                           0                     0.98879966154332266  0.065723144509847967 -0.12483119341458819    0.97343612699591431       0.058201957961360337      -0.20333169137675788           2.2380989969344252e-12              4.9589966139710028e-12       
                      -1.7325449722773696e-17                          49                                          3087.6858638347576                   6.2877870417353181e-07                 1.3912398339747761e-18             -6.5379259210255124e-20         3.4477120844905409e-19             12.501061761163186                     12.501061761163186                       12.501061761163186              -1.6234146464220452e-18     47.864876867621305   0                     47.864876867621305    0                     -3.1397599543181155e-17    1.5416172517590706e-17    8                             8                           0                     0.98117498572441075  0.10598942485738796 -0.14606465286126477    0.95386278361441301       0.093090772365748628      -0.25919524878003947           2.2225086197468671e-12              7.18150523371787e-12       
                      -1.6138861289889615e-17                          55                                          2789.27356388318                     4.0975457491373081e-07                 1.1865884328840816e-18             -8.879452349657559e-20         5.0280590172354568e-19             14.443192235420277                     14.443192235420277                       14.443192235420277              -8.1726823866875725e-19     17.178988658382135   0                     17.178988658382135    0                     -3.1164635265659289e-17    1.5429030836211462e-17    9                             9                           0                     0.97389485205185355  0.14866784632247343 -0.14789632646572926    0.93467668197867937       0.13393003360521419      -0.29536662752208681           2.2276432248176986e-12              9.4091484585355678e-12       
                      -1.5510563228077128e-17                          61                                          2840.4717918811434                   1.6685914406305109e-07                 6.2829806181248484e-19             -1.1107768413711296e-19         6.4105256088066149e-19             15.250844072159515                     15.250844072159515                       15.250844072159515              -2.8229881150228979e-19     4.6547193988437607   0                     4.6547193988437607    0                     -3.0930600080583437e-17    1.5172360787265048e-17    10                            10                          0                     0.9665812525182319   0.18952459006740366 -0.13867527229789839    0.91563851340432134       0.17873259438157166      -0.31969580176482593           2.2368401100376627e-12              1.164598856857323e-11       
                      -1.5300162596164879e-17                          67                                          3046.4567082531071                   3.8391254264766053e-08                 2.1040063191224451e-19             -1.326964429371813e-19         7.4603984362625502e-19             15.670143710434571                     15.670143710434571                       15.670143710434571              -6.7412828391762394e-20     0.92942117749121722  0                     0.92942117749121722   0                     -3.0689409164119516e-17    1.4843315995657324e-17    11                            11                          0                     0.95904403637873492  0.22666267331340959 -0.12358765476183006    0.89579601577960455       0.2271886110992597       -0.3367289619277688            2.272930001717162e-12              1.3918918570290391e-11       
                      -1.5268693747486027e-17                          73                                          3184.8131526338575                  -1.2086765140616871e-09                 3.1468848678859901e-20             -1.5200451561168e-19         8.0894094747782178e-19             16.110619475003961                     16.110619475003961                       16.110619475003961              -1.1898974612080897e-20     0.14429128525425822  0                     0.14429128525425822   0                     -3.0459498287196807e-17    1.4545767082456719e-17    12                            12                          0                     0.95185932147490082  0.25770299015099668 -0.10564697961804002    0.87546091794778602       0.2770999700476548       -0.3471571549296123            2.2340998136711894e-12              1.615301838396158e-11       
                      -1.5280556752957243e-17                          85                                          3270.8237104489913                  -8.617171535757622e-09                -1.186300547121831e-20             -1.6673482090627899e-19         8.35624562214677e-19             16.342488746768936                     16.342488746768936                       16.342488746768936              -1.9423292300562918e-21     0.02165556412415439  0                     0.02165556412415439   0                     -3.0272036121118888e-17    1.4324531956083301e-17    13                            13                          0                     0.94600112878496423  0.28028726516321589 -0.087899645717121305    0.85656078089323029       0.32285791128716912      -0.35116483909010809           1.9942779881346591e-12              1.8147296372096238e-11       
                      -1.5297579367979802e-17                          91                                          3325.9363211226582                  -9.3943430050809186e-09                -1.7022615022562728e-20             -1.7780313836558875e-19         8.4365115093643574e-19             16.087016301920151                     16.342488746768936                       16.342488746768936              -2.899307937028465e-22     0.0030542549760574989  0                     0.0030542549760574989   0                     -3.0121114514455145e-17    1.4157977064698198e-17    14                            14                          0                     0.94128482857672291  0.29664639574097512 -0.070374756058982427    0.83836849717532669       0.36572356092332142      -0.35046578492888447           1.8519660942147707e-12              1.9999262466311008e-11       
                      -1.531452730358504e-17                          97                                          3349.835823449087                   -9.1781144521609635e-09                -1.6947935605234628e-20             -1.8597814767594662e-19         8.4495748032854642e-19             15.314717681117632                     16.342488746768936                       16.342488746768936              -3.6386979555106329e-23     0.00036888836059891547  0                     0.00036888836059891547   0                     -2.9999459355877204e-17    1.4025989106619118e-17    15                            15                          0                     0.93748310487116271  0.3082485739726033  -0.052466041854974846    0.81984552567294156       0.40784071446020903      -0.34577212359491344           1.8229649064896323e-12              2.1822227372800639e-11       
                      -1.5331391260360172e-17                          103                                         3385.6049829215945                  -9.0627761860773571e-09                -1.6863956775135237e-20             -1.9136167828687986e-19         8.4745738934797252e-19             14.246073813979711                     16.342488746768936                       16.342488746768936              -3.5909026653097368e-24     3.5580669555487363e-05  0                     3.5580669555487363e-05   0                     -2.9906092000646095e-17    1.3918608620127494e-17    16                            16                          0                     0.9345653750201901   0.31538391405459909 -0.033901902750089578    0.80045767361718423       0.45025588954736817      -0.33698925485319409           1.8539225489976038e-12              2.3676149921798245e-11       
                      -1.534831739935091e-17                          109                                         3331.1696854848401                  -9.2497440791538984e-09                -1.6926138990737466e-20             -1.9369254701182267e-19         8.5597478781604017e-19             13.133297721359547                     16.342488746768936                       16.342488746768936              -2.8832030911055833e-25     2.8350722241750057e-06  0                     2.8350722241750057e-06   0                     -2.9844311483808353e-17    1.3833712131973532e-17    17                            17                          0                     0.93263473386901108  0.31780529550095715 -0.015302168115920785    0.78075336376222326       0.49184049658189238      -0.3241664431435522            1.8542433724920574e-12              2.5530393294290301e-11       
                      -1.5366054956481181e-17                          115                                         3155.1685519074026                  -9.7446409469297515e-09                -1.773755713026947e-20             -1.9292502252445049e-19         8.730113084023528e-19             12.482314202566467                     16.342488746768936                       16.342488746768936              -1.8326156871792251e-26     1.8150265036659889e-07  0                     1.8150265036659889e-07   0                     -2.9813019103270214e-17    1.3766877879237289e-17    18                            18                          0                     0.93165684697719431  0.31552839646516756  0.0031906964069406364    0.76092322244444111       0.53243969941662517      -0.30719940333692086           1.8727827254991679e-12              2.7403176019789467e-11       
                      -1.5385603137383488e-17                          121                                         2922.8784958774377                  -1.0547112683142815e-08                -1.9548180902307465e-20             -1.8895443002521801e-19         8.9891836325117712e-19             12.11238126017864                      16.342488746768936                       16.342488746768936              -8.5792094609271771e-28     8.6945044673622062e-09  0                     8.6945044673622062e-09   0                     -2.9810494160646445e-17    1.3714927090894919e-17    19                            19                          0                     0.93157794252020065  0.30835603876032297  0.021619938300867236    0.74102330394912097       0.5721638035369323       -0.28572394289762665           1.9315752312965398e-12              2.9334751251086009e-11       
                      -1.5407081467981653e-17                          127                                         2646.294526447547                   -1.1622364275433629e-08                -2.1478330598165219e-20             -1.820109980881271e-19         9.3031835568966462e-19             11.804609543290407                     16.342488746768936                       16.342488746768936              -3.1572888732908905e-29     3.3283115664326336e-10  0                     3.3283115664326336e-10   0                     -2.9833456774864353e-17    1.3678067949312735e-17    20                            20                          0                     0.93229552421451112  0.29644243130787151  0.039156975149133529    0.72205421305786499       0.60917118066007403      -0.2604918225240917            1.941576317373653e-12              3.1276327568459662e-11       
                      -1.5430905381802604e-17                          133                                         2576.5612446893615                  -1.2916199646736835e-08                -2.3823913820953336e-20             -1.7262184306525369e-19         9.6323367189678546e-19             11.261920002936                        16.342488746768936                       16.342488746768936              -9.2159979309274828e-31     1.0282206666514339e-11  0                     1.0282206666514339e-11   0                     -2.9875406120128121e-17    1.3653888909494908e-17    21                            21                          0                     0.93360644125400383  0.28009545487876764  0.055422389955344188    0.70450658474224004       0.64260161973085483      -0.23207566050391984           1.9444924540399527e-12              3.3220820022499614e-11       
                      -1.545941771271487e-17                          139                                         2881.8649456813823                  -1.4469125156438271e-08                -2.8512330912259039e-20             -1.6072654159824918e-19         9.9622358809792537e-19             11.443523782479501                     16.342488746768936                       16.342488746768936              -1.6188777772514524e-32     1.9600735619609031e-13  0                     1.9600735619609031e-13   0                     -2.9932323340120102e-17    1.3637408580905574e-17    22                            22                          0                     0.93538510437875333  0.25810220351371221  0.071106248303959591    0.68774538414854303       0.67365999131922949      -0.198746901847524             2.0842835828272318e-12              3.5305103605326846e-11       
                      -1.5489370450991751e-17                          151                                         3136.5397567046643                  -1.5988982314572296e-08                -2.995273827688402e-20             -1.4881150184731748e-19         1.0246694797997802e-18             11.969487046368267                     16.342488746768936                       16.342488746768936              -2.7988062791338042e-34     3.7442746040548377e-15  0                     3.7442746040548377e-15   0                     -2.9987780821438667e-17    1.3622552392494454e-17    23                            23                          0                     0.93711815066995807  0.23359049608224322  0.083994352615787068    0.67428218859402655       0.69780704010119243      -0.16524024748279351           1.9669004216341721e-12              3.7272004026961019e-11       
                      -1.551978096323985e-17                          157                                         3325.766087591172                   -1.7325223785062243e-08                -3.041051224809465e-20             -1.3816003475483589e-19         1.0524057333974394e-18             12.664387053647344                     16.342488746768936                       16.342488746768936              -5.2340108485609561e-36     7.8614075259696637e-17  0                     7.8614075259696637e-17   0                     -3.0032407161340395e-17    1.3598380499457943e-17    24                            24                          0                     0.93851272379188699  0.20805795714979913  0.09411546274765166    0.66415612587007888       0.71533212633120602      -0.13301849755379799           1.8246218388150211e-12              3.9096625865776042e-11       
                      -1.5552077204085557e-17                          163                                         3440.8405255883358                  -1.8462039372198191e-08                -3.2296240845705902e-20             -1.2892708256725787e-19         1.0868926438426949e-18             13.207153398797358                     16.342488746768936                       16.342488746768936              -8.3318323768293543e-38     1.4412710956957591e-18  0                     1.4412710956957591e-18   0                     -3.0063093261366921e-17    1.3553050496005927e-17    25                            25                          0                     0.93947166441771646  0.18065287131164295  0.10226112667788743    0.65661727785260215       0.72788385333694294      -0.10071078026852942           1.8030135498648418e-12              4.0899639415640881e-11       
                      -1.5586605268069559e-17                          169                                         3591.7441735006369                  -1.9313258466664208e-08                -3.4528063984002172e-20             -1.2170236379365512e-19         1.1356077030298992e-18             14.016507021237675                     16.342488746768936                       16.342488746768936              -1.0126926188089632e-39     2.092932290717935e-20  0                     2.092932290717935e-20   0                     -3.0074896401133393e-17    1.347438579382759e-17    26                            26                          0                     0.93984051253541867  0.15120720568998633  0.10854275650697291    0.65164913522258694       0.73582702976826764      -0.068107661316297127           1.8253218038770561e-12              4.2724961219517937e-11       
                      -1.5622637405366805e-17                          175                                         3683.9651578239823                  -1.9769266960361617e-08                -3.6032137297248913e-20             -1.1724001459017365e-19         1.2041283493809958e-18             14.671581233334624                     16.342488746768936                       16.342488746768936              -9.3691220360540581e-42     2.4331650992190721e-22  0                     2.4331650992190721e-22   0                     -3.006318368847253e-17    1.3353657948314903e-17    27                            27                          0                     0.93947449026476659  0.12033094824541841  0.11281866290041211    0.649458804840223         0.73923998451347095      -0.035870485648244285           1.8405635898915347e-12              4.4565524809409473e-11       
                      -1.5659370555197542e-17                          181                                         3609.0437406652013                  -1.9764683073174799e-08                -3.6733149830733837e-20             -1.1604407881796199e-19         1.2949704911138091e-18             15.364511040397462                     16.342488746768936                       16.342488746768936              -6.4102476272869215e-44     2.2607223783487382e-24  0                     2.2607223783487382e-24   0                     -3.0025657056831881e-17    1.3187360089338492e-17    28                            28                          0                     0.93830178302599598  0.088608950957982199  0.11500826404819536    0.65015489511911373       0.73840186748602443      -0.004517673870725384           1.8546611634542719e-12              4.6420185972863743e-11       
                      -1.5696101473323469e-17                          187                                         3435.6955533539603                  -1.9269746423428056e-08                -3.6730918125927126e-20             -1.1835385617410568e-19         1.407954805144248e-18             16.190095328723292                     16.342488746768936                       16.342488746768936              -2.9463272013272319e-46     1.6297444945797561e-26  0                     1.6297444945797561e-26   0                     -2.9962238168836725e-17    1.2976535746543114e-17    29                            29                          0                     0.93631994277614761  0.056495190103536819  0.11505644711806885    0.65378862065316368       0.73364554435305829       0.025626192949561276           1.8781941384682247e-12              4.829838011133197e-11       
                      -1.5731631891975856e-17                          193                                         3241.335429101623                   -1.8312201353745251e-08                -3.5530418652390386e-20             -1.2406591470998943e-19         1.5377926844712254e-18             16.998530475458477                     16.998530475458477                       16.998530475458477              -7.4994998436072215e-49     9.4169368092530403e-29  0                     9.4169368092530403e-29   0                     -2.9876436423418466e-17    1.2731077761681375e-17    30                            30                          0                     0.93363863823182669  0.024887006768745088  0.11293168756940689    0.66028233096764921       0.72539861205866973       0.05387842912530736           1.8874030081913696e-12              5.0185783119523339e-11       
                      -1.5764920784750534e-17                          199                                         3067.957074668373                   -1.6987046178369283e-08                -3.3288892774678706e-20             -1.3265126398222837e-19         1.6751344716570383e-18             17.391770894649088                     17.391770894649088                       17.391770894649088               7.7376497090752469e-52     4.5172794592649861e-31  0                     4.5172794592649861e-31   0                     -2.9774982735370793e-17    1.2467578742945449e-17    31                            31                          0                     0.93046821048033757 -0.0053528136921585359  0.10869260883092256    0.66940226093135768       0.71417509033479576       0.079662407314737796           1.8834431478050804e-12              5.2069226267328418e-11       