# ODT 1.0
# Table Start
# Title: mmArchive Data Table, Tue Apr 25 12:18:46 COT 2017
# Columns: {Oxs_RungeKuttaEvolve:evolve:Total energy} {Oxs_RungeKuttaEvolve:evolve:Energy calc count} {Oxs_RungeKuttaEvolve:evolve:Max dm/dt} Oxs_RungeKuttaEvolve:evolve:dE/dt {Oxs_RungeKuttaEvolve:evolve:Delta E} Oxs_CubicAnisotropy::Energy Oxs_UniformExchange::Energy {Oxs_UniformExchange::Max Spin Ang} {Oxs_UniformExchange::Stage Max Spin Ang} {Oxs_UniformExchange::Run Max Spin Ang} Oxs_ScriptUZeeman::Energy Oxs_ScriptUZeeman::B Oxs_ScriptUZeeman::Bx Oxs_ScriptUZeeman::By Oxs_ScriptUZeeman::Bz Oxs_FixedZeeman::Energy Oxs_Demag::Energy    Oxs_TimeDriver::Iteration {Oxs_TimeDriver::Stage iteration} Oxs_TimeDriver::Stage Oxs_TimeDriver::mx   Oxs_TimeDriver::my   Oxs_TimeDriver::mz   Oxs_TimeDriver::mx_corner Oxs_TimeDriver::my_corner Oxs_TimeDriver::mz_corner {Oxs_TimeDriver::Last time step} {Oxs_TimeDriver::Simulation time}
# Units:                       J                                            {}                                        deg/ns                                 J/s                                  J                                J                           J                              deg                                    deg                                      deg                               J                      mT                   mT                    mT                    mT                      J                    J                       {}                            {}                          {}                   {}                   {}                   {}                      {}                        {}                        {}                            s                                 s                
                      -1.9828498827100854e-17                          1                                           4683.1969476758823                  -4.7231223582395485e-08                 0                               -1.0662188905552415e-21         0                               0                                      0                                        0                               -1.2796801199499635e-18     200                  0                     200                   0                     -3.1992002998750553e-17    1.3444250510490219e-17    0                             0                           0                     0.99975009371095891  0.019995001874219157  0.0099975009371095786    0.99975009371095369       0.019995001874219126       0.009997500937109563           0                                0                         
                      -1.9828594490100353e-17                          7                                           4683.2883597918726                  -4.7086391017235246e-08                -9.5662999443902375e-23             -1.0631308258160364e-21         3.7800952476124478e-26             0.003733952632853916                    0.003733952632853916                      0.003733952632853916             -1.2795988680915137e-18     199.99997718198875   0                     199.99997718198875    0                     -3.1992026167533136e-17    1.3444093638549162e-17    1                             1                           0                     0.99975081773541086  0.01999373459501623  0.0099273658324211533    0.99975110347197971       0.019995483821719933       0.0098949610431124033           2.0285288246770274e-15              2.0285288246770274e-15       
                      -1.9828974204207614e-17                          13                                          4683.6450175482614                  -4.650708579573792e-08                -3.7971410726231841e-22             -1.0510224880874069e-21         9.4497966569280346e-25             0.018667442273754799                    0.018667442273754799                      0.018667442273754799             -1.279282953203407e-18     199.99942955049997   0                     199.99942955049997    0                     -3.1992117011559284e-17    1.3443475838063498e-17    2                             2                           0                     0.99975365661122684  0.019988853156959696  0.0096468281677497495    0.99975501977514736       0.019997548527018089       0.0094848040181228464           8.1141152987081096e-15              1.0142644123385137e-14       
                      -1.9830446056768687e-17                          19                                          4684.9273865489158                  -4.4189922189093609e-08                -1.4718525610750551e-21             -1.0064921234144466e-21         1.6666149931213113e-23             0.078362583111017875                    0.078362583111017875                      0.078362583111017875             -1.278164796533843e-18     199.9899375096108    0                     199.9899375096108     0                     -3.1992451090228457e-17    1.3441159655967096e-17    3                             3                           0                     0.99976409656963916  0.019972329802724752  0.008524741604937389    0.99976872112277759       0.020007997570332586       0.0078442372895919359           3.2456461194832438e-14              4.2599105318217572e-14       
                      -1.9835580611637981e-17                          25                                          4687.7240043472348                  -3.4900258362232976e-08                -5.1345548692925794e-21             -8.9080491904814199e-22         2.7278339794510792e-22             0.31641461217893191                    0.31641461217893191                      0.31641461217893191             -1.2760189427890844e-18     199.83520778786777   0                     199.83520778786777    0                     -3.1993318855195388e-17    1.3434375207867595e-17    4                             4                           0                     0.99979121422485573  0.019954237495771097  0.0040387022880579619    0.99979211464464601       0.020084806455409155       0.0012842673888090392           1.2982584477932975e-13              1.7242495009754732e-13       
                      -1.9843784747050683e-17                          31                                          4671.3302391868765                   3.9594369894804063e-09                -8.2041354127034376e-21             -1.4186921608569053e-21         4.3617609794036083e-21             1.2536073006847783                     1.2536073006847783                       1.2536073006847783              -1.3039016076993842e-18     197.36422113023929   0                     197.36422113023929    0                     -3.1989355905531771e-17    1.3446529697361925e-17    5                             5                           0                     0.9996673720478676   0.020645548117719466 -0.013787002140619977    0.99938643664981508       0.020949308526651292      -0.024835166410011409           5.1930337911731901e-13              6.9172832921486636e-13       
                      -1.9626541607726269e-17                          37                                          4432.5125696669566                   2.3523193399220729e-07                 2.1724313932441863e-19             -1.6651413775622287e-20         6.3528802223410411e-20             4.5820639849187161                     4.5820639849187161                       4.5820639849187161              -1.7916371334073987e-18     162.87377343813395   0                     162.87377343813395    0                     -3.1873854105301026e-17    1.3992072242534367e-17    6                             6                           0                     0.99605794079065635  0.034375491668858449 -0.077115389483848606    0.99091145259361579       0.032492161591004355      -0.1204387068048545            2.0296944868094227e-12              2.721422816024289e-12       
                      -1.8717429671360257e-17                          43                                          3716.1522192426396                   5.617462842780152e-07                 9.0911193636599963e-19             -4.6439157941412596e-20         1.8899626045789887e-19             8.9973449640021901                     8.9973449640021901                       8.9973449640021901              -2.1241072521541226e-18     101.10154916018911   0                     101.10154916018911    0                     -3.1641355521530992e-17    1.4905475999808372e-17    7                             7                           0                     0.98879236004784321  0.065655128117417805 -0.12491647249779682    0.97341890712949053       0.05806531728135237      -0.20343787575106029           2.2389070531541739e-12              4.9603298691784633e-12       
                      -1.7327818801304497e-17                          49                                          3086.5061329451146                   6.2775244300822682e-07                 1.3896108700557763e-18             -7.6480392880091188e-20         3.4520740818962802e-19             12.509572330767245                     12.509572330767245                       12.509572330767245              -1.620362568361607e-18     47.829456335599481   0                     47.829456335599481    0                     -3.1397244327129294e-17    1.5421061078876868e-17    8                             8                           0                     0.98116388522279052  0.10586850476828734 -0.14620857482314151    0.95383396647624275       0.09283823888252063      -0.25936600350943817           2.223034075018324e-12              7.1833639441967872e-12       
                      -1.614318832557339e-17                          55                                          2787.9085920138955                   4.0892797957412134e-07                 1.1846304757310966e-18             -1.0387498326866227e-19         5.0363816117662477e-19             14.456495716175974                     14.456495716175974                       14.456495716175974              -8.1544887396349121e-19     17.15901975712147    0                     17.15901975712147     0                     -3.1164109990260634e-17    1.5436607360742774e-17    9                             9                           0                     0.97387843719564471  0.14850951669767154 -0.14812797429365002    0.93463523657617498       0.13356238740864601      -0.29562918905118851           2.2280134211231069e-12              9.4113773653198938e-12       
                      -1.5516193563204358e-17                          61                                          2838.7672995448961                   1.6647200893533747e-07                 6.2699476236903362e-19             -1.2996591931347657e-19         6.4238267898211474e-19             15.269557171896805                     15.269557171896805                       15.269557171896805              -2.8162242085676119e-19     4.6475588774420142   0                     4.6475588774420142    0                     -3.0929730308982066e-17    1.5182742406965831e-17    10                            10                          0                     0.96655407215568978  0.1893617893576344  -0.1390250821921076     0.91558133419697485       0.17826642482670713      -0.32008125617701921           2.2369948898291089e-12              1.1648372255149003e-11       
                      -1.5306302988607474e-17                          67                                          3045.5087063980905                   3.8265641110369149e-08                 2.0989057459688016e-19             -1.5531687460284939e-19         7.4792352177642071e-19             15.694130872400395                     15.694130872400395                       15.694130872400395              -6.7237239112939465e-20     0.92746685070775592  0                     0.92746685070775592   0                     -3.0687834227317123e-17    1.4856161830649017e-17    11                            11                          0                     0.95899481960365951  0.22654866000611773 -0.12407668430468786    0.8957141991384282        0.22666081202110783      -0.33726807313908719           2.2732732712055981e-12              1.39216455263546e-11       
                      -1.5274989666313653e-17                          73                                          3184.9803848566389                  -1.244422695244428e-09                 3.1313322293820028e-20             -1.780007911744741e-19         8.1127953872441075e-19             16.139292967226716                     16.139292967226716                       16.139292967226716              -1.1867540086884315e-20     0.14391779736195878  0                     0.14391779736195878   0                     -3.0456819659963047e-17    1.4560418786186342e-17    12                            12                          0                     0.95177561437384484  0.25768920488854163 -0.10628246364404287    0.87534777769281913       0.2765500574259766       -0.34786162406009408           2.234266141669301e-12              1.61559116680239e-11       
                      -1.5286895330152266e-17                          85                                          3271.5865066287943                  -8.6329599246245422e-09                -1.1905663838609007e-20             -1.953454211462182e-19         8.382030031999009e-19             16.374096939378397                     16.374096939378397                       16.374096939378397              -1.9386268879105913e-21     0.021605364157145469  0                     0.021605364157145469   0                     -3.0268042108264978e-17    1.4340227822946942e-17    13                            13                          0                     0.94587631588327992  0.28040300458055373 -0.088671527943264369    0.85641839915127049       0.32230910970971371      -0.3520188474059629            1.9936908289156616e-12              1.8149602496939561e-11       
                      -1.5303936057731789e-17                          91                                          3327.9347790379252                  -9.4034942585224678e-09                -1.7040727579519646e-20             -2.0842533946598241e-19         8.4628051688229115e-19             16.119849023642548                     16.374096939378397                       16.374096939378397              -2.8963468783858743e-22     0.0030482709815698172  0                     0.0030482709815698172   0                     -3.0115556019486458e-17    1.4174054419026199e-17    14                            14                          0                     0.9411111256089516   0.2969251765896046  -0.071267278892950467    0.83819167656728666       0.36520673286210142      -0.35145512803967022           1.8514282983195145e-12              2.0001030795259075e-11       
                      -1.5320891543613322e-17                          97                                          3352.8062194646132                  -9.1778214791782747e-09                -1.6955485881542302e-20             -2.1814363463637459e-19         8.4746147086694984e-19             15.346685303168599                     16.374096939378397                       16.374096939378397              -3.6371570507505851e-23     0.0003681592681528374  0                     0.0003681592681528374   0                     -2.9992054433118053e-17    1.4041881424844662e-17    15                            15                          0                     0.93725170103493882  0.30872822625443319 -0.053463059388084405    0.81962395239019159       0.40739077084302833      -0.34688250286167699           1.8228314594581906e-12              2.1823862254717266e-11       
                      -1.5337743310334971e-17                          103                                         3389.8430036235304                  -9.0479369810632326e-09                -1.6851766721645092e-20             -2.2461910414086526e-19         8.4968495522830958e-19             14.271457385092813                     16.374096939378397                       16.374096939378397              -3.5908001870954474e-24     3.5498754771045026e-05  0                     3.5498754771045026e-05   0                     -2.9896596411967762e-17    1.3933790841345532e-17    16                            16                          0                     0.93426863787399206  0.31610265365775725 -0.034987786347689821    0.80018134239866912       0.44990253747683639      -0.33820222117015353           1.8540431877574845e-12              2.367790544247475e-11       
                      -1.5354623324788973e-17                          109                                         3336.103744478291                   -9.2160013076580464e-09                -1.6880014454001677e-20             -2.2753743597543137e-19         8.5783082539342166e-19             13.167715764460876                     16.374096939378397                       16.374096939378397              -2.8857313163026528e-25     2.8287719174363253e-06  0                     2.8287719174363253e-06   0                     -2.9832641020691103e-17    1.3847724595057271e-17    17                            17                          0                     0.93227003189659652  0.31879241687391302 -0.016461378930405085    0.78042005121249358       0.49159518992218654      -0.32545881626884582           1.8540592789804794e-12              2.5531964721455231e-11       
                      -1.5372277661290668e-17                          115                                         3161.4758709328603                  -9.68869859401733e-09                -1.7654336501692969e-20             -2.2684077379251749e-19         8.7446337179211159e-19             12.513195566772374                     16.374096939378397                       16.374096939378397              -1.8355713676965163e-26     1.810584566548139e-07  0                     1.810584566548139e-07   0                     -2.9799175399404152e-17    1.3779275158469604e-17    18                            18                          0                     0.93122423123137943  0.31681262670804256  0.0019818683113414777    0.76052592836242061       0.5323223118971826       -0.30854087851302076           1.8728237706951972e-12              2.740478849215043e-11       
                      -1.5391697454392169e-17                          121                                         2929.2325451685392                  -1.0466803552356639e-08                -1.9419793101506491e-20             -2.2239759103919461e-19         8.9999503270216215e-19             12.139457879307384                     16.374096939378397                       16.374096939378397              -8.5970780960464562e-28     8.6673534453435738e-09  0                     8.6673534453435738e-09   0                     -2.9794599822490572e-17    1.3725304927295141e-17    19                            19                          0                     0.93108124445283036  0.3099662338632162   0.020388891906416972    0.74055455913485235       0.57219270435661973      -0.28707873204139417           1.9318854444033416e-12              2.9336673936553772e-11       
                      -1.5412996041496698e-17                          127                                         2652.2936830089207                  -1.1518067677777594e-08                -2.1298587104522529e-20             -2.1445549186387195e-19         9.3109226867326451e-19             11.828546257163824                     16.374096939378397                       16.374096939378397              -3.1676169772788735e-29     3.3173435413969718e-10  0                     3.3173435413969718e-10   0                     -2.9815863897251121e-17    1.3686231078976705e-17    20                            20                          0                     0.93174574678909738  0.29839547609313932  0.037930349931883586    0.72151540967783256       0.60934413633187601      -0.26182756046008809           1.9415567976412337e-12              3.1278230734195004e-11       
                      -1.5436589736434024e-17                          133                                         2579.100684914411                   -1.2790882425769529e-08                -2.359369493732279e-20             -2.0361013828538151e-19         9.6377534891652748e-19             11.285187147086143                     16.374096939378397                       16.374096939378397              -9.2681382985678555e-31     1.0255904466518011e-11  0                     1.0255904466518011e-11   0                     -2.9856625774287437e-17    1.3659870827223194e-17    21                            21                          0                     0.93301955544648263  0.28240251532742433  0.054228940549969788    0.70390085604477393       0.64291004873215474      -0.23336396955813563           1.9439796472164094e-12              3.3222210381411415e-11       
                      -1.5464813887993329e-17                          139                                         2885.0179347229291                  -1.4328079227778814e-08                -2.822415155930552e-20             -1.8976571174278831e-19         9.9655795173287052e-19             11.421576006155838                     16.374096939378397                       16.374096939378397              -1.6334133732574242e-32     1.9573054719056643e-13  0                     1.9573054719056643e-13   0                     -2.991300760338595e-17    1.3641401475402555e-17    22                            22                          0                     0.93478148760581103  0.26078794877427686  0.069987214046329682    0.68706749993676453       0.67410842049780673      -0.1999488929811499            2.0836150911175334e-12              3.5305825472528947e-11       
                      -1.5494494059751132e-17                          151                                         3140.6479216242678                  -1.5843826241373513e-08                -2.9680171757804233e-20             -1.7578495735583908e-19         1.0247810024640361e-18             11.945175569307152                     16.374096939378397                       16.374096939378397              -2.8265252016005129e-34     3.7332252194149904e-15  0                     3.7332252194149904e-15   0                     -2.996881378565424e-17    1.362532368079491e-17    23                            23                          0                     0.93652543080169448  0.23660215325518819  0.082993433907271624    0.67352755129919606       0.69839493465424896      -0.16630389385508701           1.9676084537843528e-12              3.72734339263133e-11       
                      -1.5524654380763308e-17                          157                                         3331.11411947532                    -1.7186630282240141e-08                -3.0160321012176387e-20             -1.6318510726144991e-19         1.052190856712153e-18             12.637990272535761                     16.374096939378397                       16.374096939378397              -5.2931014874662603e-36     7.8264985071670519e-17  0                     7.8264985071670519e-17   0                     -3.0014501505458327e-17    1.3600841375244318e-17    24                            24                          0                     0.93795317204557294  0.2113453689818614   0.093256632995678795    0.66333520119448253       0.71603211950824863      -0.13392700507468885           1.8252446950733316e-12              3.9098678621386631e-11       
                      -1.5556719601509668e-17                          163                                         3447.141624188836                   -1.8340383162182176e-08                -3.2065220746357852e-20             -1.5215178614784784e-19         1.086190225314142e-18             13.175966022967035                     16.374096939378397                       16.374096939378397              -8.4495267105908238e-38     1.4336221597371639e-18  0                     1.4336221597371639e-18   0                     -3.004689432274689e-17    1.3556136282070928e-17    25                            25                          0                     0.93896544758584033  0.18418221838477492  0.10157191974575047    0.65573878623797321       0.72867362823574677      -0.10145079214379894           1.8033069829481947e-12              4.0901985604334825e-11       
                      -1.5591056734707512e-17                          169                                         3599.3960698460323                  -1.9219496428076708e-08                -3.4337133197845884e-20             -1.4337733281664314e-19         1.1342364459876019e-18             13.977466607949438                     16.374096939378397                       16.374096939378397              -1.0309628090169212e-39     2.0794323838941491e-20  0                     2.0794323838941491e-20   0                     -3.0061005726544523e-17    1.3479089878666053e-17    26                            26                          0                     0.93940642895451609  0.15493452940001351  0.10805574370463421    0.65072078076676532       0.73668801222463542      -0.068659816077693572           1.8257069127367943e-12              4.2727692517071618e-11       
                      -1.5626956744813801e-17                          175                                         3692.8731560729216                  -1.9713133757616426e-08                -3.5900010106292274e-20             -1.377674438545521e-19         1.2019322107508606e-18             14.63034662865598                      16.374096939378397                       16.374096939378397              -9.5967920580144902e-42     2.4146171627075402e-22  0                     2.4146171627075402e-22   0                     -3.0052050880549016e-17    1.3360929368838906e-17    27                            27                          0                     0.93912659001715659  0.12420178090537193  0.11256350747110157    0.64849198527543983       0.74015056175469385      -0.036223907963850034           1.8409286780159788e-12              4.4568621195087594e-11       
                      -1.5663635498489874e-17                          181                                         3618.9105184579576                  -1.9753578610467333e-08                -3.6678753676077399e-20             -1.3594649787105461e-19         1.2918681963003008e-18             15.321652454452096                     16.374096939378397                       16.374096939378397              -6.635053397809074e-44     2.2402024014584687e-24  0                     2.2402024014584687e-24   0                     -3.0017520681889717e-17    1.3197963484970595e-17    28                            28                          0                     0.93804752130905422  0.092556555848053348  0.11501140710306483    0.64916392789733968       0.73933943204387198      -0.0046665699958246378           1.855106946331748e-12              4.642372814141934e-11       
                      -1.5700401655403455e-17                          187                                         3446.4242846268012                  -1.9307928387884236e-08                -3.6766156913574674e-20             -1.3823618246996695e-19         1.4039696052937562e-18             16.137941125837404                     16.374096939378397                       16.374096939378397              -3.1181942883724624e-46     1.6121331290633894e-26  0                     1.6121331290633894e-26   0                     -2.9957090234056434e-17    1.2990955155829189e-17    29                            29                          0                     0.93615906981426344  0.060443873868067002  0.11534078527593722    0.65279046739520563       0.73458707587912231       0.025681083262725155           1.8787085908774093e-12              4.8302436732296748e-11       
                      -1.5736044506325762e-17                          193                                         3253.0286512971129                  -1.8399716240781624e-08                -3.5642850922311494e-20             -1.4456126680260134e-19         1.5330350557241511e-18             16.942698998572833                     16.942698998572833                       16.942698998572833              -8.5804474861615567e-49     9.3203117563635116e-29  0                     9.3203117563635116e-29   0                     -2.9873998337927512e-17    1.27494800426802e-17    30                            30                          0                     0.93356244806023458  0.028769314906175136  0.1135130215606573     0.65929196935009882       0.72632652324721436       0.054114140912780426           1.8870523886638309e-12              5.0189489120960578e-11       
                      -1.5769579007803112e-17                          199                                         3080.2964976331191                  -1.711663105371905e-08                -3.3534501477348122e-20             -1.5436179848920659e-19         1.6701244903839707e-18             17.326860846105443                     17.326860846105443                       17.326860846105443               2.362902562590183e-52     4.440372287911119e-31  0                     4.440372287911119e-31   0                     -2.9774499783316948e-17    1.2489158083619071e-17    31                            31                          0                     0.93045311822865473 -0.0016629395080672452  0.10957078405750102    0.66845059288869746       0.71505463776009059       0.080097402348462701           1.8856840644878984e-12              5.2075173185448479e-11       