# ODT 1.0
# Table Start
# Title: mmArchive Data Table, Thu Apr 27 15:11:52 COT 2017
# Columns: {Oxs_RungeKuttaEvolve:evolve:Total energy} {Oxs_RungeKuttaEvolve:evolve:Energy calc count} {Oxs_RungeKuttaEvolve:evolve:Max dm/dt} Oxs_RungeKuttaEvolve:evolve:dE/dt {Oxs_RungeKuttaEvolve:evolve:Delta E} Oxs_CubicAnisotropy::Energy Oxs_UniformExchange::Energy {Oxs_UniformExchange::Max Spin Ang} {Oxs_UniformExchange::Stage Max Spin Ang} {Oxs_UniformExchange::Run Max Spin Ang} Oxs_ScriptUZeeman::Energy Oxs_ScriptUZeeman::B Oxs_ScriptUZeeman::Bx Oxs_ScriptUZeeman::By Oxs_ScriptUZeeman::Bz Oxs_FixedZeeman::Energy Oxs_Demag::Energy    Oxs_TimeDriver::Iteration {Oxs_TimeDriver::Stage iteration} Oxs_TimeDriver::Stage Oxs_TimeDriver::mx   Oxs_TimeDriver::my   Oxs_TimeDriver::mz   Oxs_TimeDriver::mx_corner Oxs_TimeDriver::my_corner Oxs_TimeDriver::mz_corner {Oxs_TimeDriver::Last time step} {Oxs_TimeDriver::Simulation time}
# Units:                       J                                            {}                                        deg/ns                                 J/s                                  J                                J                           J                              deg                                    deg                                      deg                               J                      mT                   mT                    mT                    mT                      J                    J                       {}                            {}                          {}                   {}                   {}                   {}                      {}                        {}                        {}                            s                                 s                
                      -1.4250892681817714e-15                          1                                           4836.8055311746039                  -2.2500510139706531e-06                 0                               -4.4958630130234145e-20         0                               0                                      0                                        0                               -6.3984005997362784e-17     200                  0                     200                   0                     -1.5996001499375273e-15    2.3853984638324882e-16    0                             0                           0                     0.99975009371081669  0.019995001874216146  0.0099975009371080729    0.99975009371095369       0.019995001874219126       0.009997500937109563           0                                0                         
                      -1.4250936806038659e-15                          7                                           4836.8900732672091                  -2.2430074508721471e-06                -4.4124219558955535e-21             -4.4828304821424481e-20         3.7575411574365853e-25             0.0036765035058914353                    0.0036765035058914353                      0.0036765035058914353             -6.3977315061428817e-17     199.99997860829592   0                     199.99997860829592    0                     -1.5996013093875236e-15    2.3852977177415379e-16    1                             1                           0                     0.99975081836720192  0.019992913095108786  0.009928974187006348    0.99975112755646234       0.019995504794488205       0.0098924892723112993           1.9641062554137778e-15              1.9641062554137778e-15       
                      -1.4251111919771893e-15                          13                                          4837.2198668246365                  -2.2148428143891287e-06                -1.7511373323952604e-20             -4.4316445388803824e-20         9.3934836116739256e-24             0.018380377860756868                    0.018380377860756868                      0.018380377860756868             -6.3951175242684917e-17     199.9994652080841    0                     199.9994652080841     0                     -1.5996058631454773e-15    2.3849015346287798e-16    2                             2                           0                     0.99975366446592306  0.019984795701875082  0.0096548711024062456    0.99975513578729958       0.019997660105511409       0.0094724452228372343           7.8564250216551113e-15              9.8205312770688895e-15       
                      -1.4251790263408724e-15                          19                                          4838.4046667201928                  -2.102315300722161e-06                -6.7834363683377526e-20             -4.2420065313211181e-20         1.6567336717017993e-22             0.077160109715937508                    0.077160109715937508                      0.077160109715937508             -6.385660139533691e-17     199.99056648047608   0                     199.99056648047608    0                     -1.5996227336964567e-15    2.3834256314286728e-16    3                             3                           0                     0.99976420856028492  0.019956129218715927  0.0085585391990153567    0.99976913429548431       0.020008579037299794       0.0077923296180398794           3.1425700086620445e-14              4.1246231363689336e-14       
                      -1.4254150465406314e-15                          25                                          4840.9711494259182                  -1.6528423133441056e-06                -2.3602019975689107e-19             -3.7249909497723977e-20         2.7120235198228384e-21             0.31160889911277301                    0.31160889911277301                      0.31160889911277301             -6.3638076729194172e-17     199.84550463246285   0                     199.84550463246285    0                     -1.5996687230102384e-15    2.3792629108477903e-16    4                             4                           0                     0.99979295188139783  0.01990227302280017  0.0041756360830016333    0.99979258764731038       0.020088989220883348       0.0010740418798538427           1.2570280034648178e-13              1.6694903171017112e-13       
                      -1.4257825456656696e-15                          31                                          4819.9514762538574                   2.2642198463677712e-07                -3.6749912503943535e-19             -5.4901533817860707e-20         4.3396167943700111e-20             1.2348807702284825                     1.2348807702284825                       1.2348807702284825              -6.5279051027914414e-17     197.52795569858756   0                     197.52795569858756    0                     -1.5995116572838536e-15    2.3901966801197265e-16    5                             5                           0                     0.999694785802408    0.020655003869276583 -0.013244785507633642    0.99936885693385635       0.020995667443608902      -0.025687587910840928           5.0281120138592712e-13              6.697602330960982e-13       
                      -1.4141742004769233e-15                          37                                          4609.1562642167191                   1.3111863591992133e-05                 1.1608345188745082e-17             -6.7141131247460585e-19         6.5616125193030418e-19             4.5944712780879051                     4.5944712780879051                       4.5944712780879051              -1.0043774396422713e-16     163.86281217153208   0                     163.86281217153208    0                     -1.5939813820020168e-15    2.802601755498649e-16    6                             6                           0                     0.99623836375126129  0.038308624846454427 -0.07687773865422759    0.99015902091757302       0.033598287348091622      -0.12642841174114783           2.0112448055437085e-12              2.6810050386398069e-12       
                      -1.3605843401309439e-15                          43                                          3912.8318997259985                   3.4275364152678585e-05                 5.3589860345981007e-17             -2.0125374827593602e-18         1.9775766446332983e-18             9.0949281097778343                     9.0949281097778343                       9.0949281097778343              -1.3100676402681711e-16     102.2871828629459    0                     102.2871828629459     0                     -1.5816640151524852e-15    3.5212139988648448e-16    7                             7                           0                     0.98854000947030307  0.080048374806128003 -0.12625548867866998    0.97049177609551351       0.062193363054563057      -0.21604633505108659           2.2367551758288268e-12              4.9177602144686333e-12       
                      -1.2736485380188429e-15                          49                                          3317.3972110347868                   4.0149489170244368e-05                 8.6935802112101567e-17             -3.6120708719814033e-18         3.6151887627884671e-18             12.726123217131844                     12.726123217131844                       12.726123217131844              -1.0490550124783819e-16     48.696312318071797   0                     48.696312318071797    0                     -1.5664613326279177e-15    3.9771517796610612e-16    8                             8                           0                     0.97903833289244824  0.13464251225357379 -0.14979850763910885    0.94767959667782486       0.1016781324968183       -0.2781837043895149            2.2203690416426861e-12              7.1381292561113194e-12       
                      -1.1968951112825956e-15                          55                                          3049.5609864542066                   2.6937496568981253e-05                 7.6753426736246148e-17             -5.3791565299605708e-18         5.2392779744124895e-18             14.790234897013047                     14.790234897013047                       14.790234897013047              -5.4526725901259095e-17     17.604658180996388   0                     17.604658180996388    0                     -1.5488411250271022e-15    4.066126182013138e-16    9                             9                           0                     0.9680257031419397   0.19358060428048712 -0.15468823918676011    0.92435929134690609       0.14864163711506004      -0.3200437955072315            2.2239897339353374e-12              9.3621189900466576e-12       
                      -1.1812971378269621e-15                          61                                          3037.7911549627943                   2.1980352532073848e-05                 1.5597973455633331e-17             -5.9174041578486368e-18         5.6634603388626477e-18             15.135327833718515                     15.135327833718515                       15.135327833718515              -4.2083250788268352e-17     12.500000000000005   0                     12.500000000000005    0                     -1.5432531833908817e-15    4.0429324017117391e-16    10                            10                          0                     0.96453323961930038  0.21041625394134053 -0.15389516652828714    0.91757523106903083       0.16312953168720293      -0.3294415068190204            6.378810099533414e-13              9.9999999999999994e-12       
                      -1.1812971378269621e-15                          62                                          3037.7911549627943                   2.1980352532073852e-05                 0                               -5.9174041578486368e-18         5.6634603388626477e-18             15.135327833718515                     15.135327833718515                       15.135327833718515              -4.2083250788268352e-17     12.500000000000005   0                     12.500000000000005    0                     -1.5432531833908817e-15    4.0429324017117391e-16    11                            0                           1                     0.96453323961930038  0.21041625394134053 -0.15389516652828714    0.91757523106903083       0.16312953168720293      -0.3294415068190204            0                                9.9999999999999994e-12       
                      -1.1499213228504693e-15                          68                                          3212.2393198317609                   8.2799130469546606e-06                 3.1375814976493109e-17             -7.8144805631337622e-18         6.8736852266545202e-18             15.811621288378834                     15.811621288378834                       15.811621288378834              -1.4153010046533752e-17     3.3329969749743524   0                     3.3329969749743524    0                     -1.522546372088822e-15    3.8771885462136572e-16    12                            1                           1                     0.95159148255551418  0.26539571879304763 -0.14706812872331868    0.8939421233897572        0.2147224857073628       -0.35516312308268527           2.1521975190857433e-12              1.2152197519085742e-11       
                      -1.1402487333528168e-15                          74                                          3445.4719332699033                   1.4939978717200631e-06                 9.6725894976516244e-18             -9.8362292183430089e-18         7.6876410963809198e-18             16.244919876499974                     16.244919876499974                       16.244919876499974              -3.2552541610096166e-18     0.63918463762317457  0                     0.63918463762317457   0                     -1.4983807864790061e-15    3.6353589540916099e-16    13                            2                           1                     0.93648799154937767  0.31830143136676647 -0.1359386886277526     0.86754356118424181       0.27234508654069189      -0.37399177148911034           2.2435931418969346e-12              1.4395790660982677e-11       
                      -1.1395879944009566e-15                          80                                          3622.4110340976804                  -4.2427330126856041e-07                 6.6073895186134407e-19             -1.1734369145196308e-17         8.0290654331546176e-18             16.736451797201077                     16.736451797201077                       16.736451797201077              -5.5884186233522368e-19     0.095705270937704853  0                     0.095705270937704853   0                     -1.4731304265609059e-15    3.3780657773432624e-16    14                            3                           1                     0.92070651660056535  0.36494976769552057 -0.12270838988473801    0.8394875186883014        0.33206121528869381      -0.38498635102300222           2.2092642897501739e-12              1.6605054950732851e-11       
                      -1.1409591519393385e-15                          86                                          3732.58191941516                    -7.0220054485289959e-07                -1.3711575383822207e-18             -1.3418234009545878e-17         8.0238689089200896e-18             16.969963598526125                     16.969963598526125                       16.969963598526125              -7.1662570778557819e-20     0.011047243211837591  0                     0.011047243211837591   0                     -1.4479098606136872e-15    3.1241673634575297e-16    15                            4                           1                     0.90494366288355477  0.40543243122053008 -0.10792688561585788    0.80956068582436502       0.39322781731741141      -0.38817045607613976           2.1992171588552075e-12              1.880427210958806e-11       
                      -1.1417852700794995e-15                          92                                          3761.6676352960781                  -6.710985606559405e-07                -8.2611814016073283e-19             -1.4220749392367534e-17         7.9404381764596331e-18             16.836596377183554                     16.969963598526125                       16.969963598526125              -2.0742888624734559e-20     0.0030517578125000065  0                     0.0030517578125000065   0                     -1.4346367460330431e-15    2.9915253005807631e-16    16                            5                           1                     0.89664796627065213  0.42481435903456016 -0.09933275791615144    0.79250800178947112       0.4267476567529066       -0.38661156471584768           1.1957278904119401e-12              1.9999999999999999e-11       
                      -1.1417852700794995e-15                          93                                          3761.6676352960781                  -6.7109856065592875e-07                 0                               -1.4220749392367534e-17         7.9404381764596331e-18             16.836596377183554                     16.836596377183554                       16.969963598526125              -2.0742888624734559e-20     0.0030517578125000065  0                     0.0030517578125000065   0                     -1.4346367460330431e-15    2.9915253005807631e-16    17                            0                           2                     0.89664796627065213  0.42481435903456016 -0.09933275791615144    0.79250800178947112       0.4267476567529066       -0.38661156471584768           0                                1.9999999999999999e-11       
                      -1.1430110709920835e-15                          99                                          3834.7144750556563                  -5.6688726574552896e-07                -1.2258009125843574e-18             -1.5351100995003613e-17         7.7876316374746537e-18             16.20534555228237                      16.836596377183554                       16.969963598526125              -2.2198540602055288e-21     0.00030651842489058656  0                     0.00030651842489058656   0                     -1.4140438984872713e-15    2.7859851670677689e-16    18                            1                           2                     0.88377743655454399  0.45263471131423405 -0.084424939866131615    0.76328048553663419       0.48193338043674822      -0.37895765373941803           1.9747552728593168e-12              2.1974755272859317e-11       
                      -1.1440328110746329e-15                          105                                         3857.3088015119683                  -4.6360116906583119e-07                -1.0217400825493204e-18             -1.6236285448202611e-17         7.718343586047961e-18             15.247427481203932                     16.836596377183554                       16.969963598526125              -1.8517834180641812e-22     2.4351486483511964e-05  0                     2.4351486483511964e-05   0                     -1.3956729448691082e-15    2.6015826083497164e-16    19                            2                           2                     0.87229559054319172  0.47527473818640281 -0.068689222936157771    0.73287253387717832       0.53660363257325072      -0.36476108453605322           1.9884909716689609e-12              2.3963246244528277e-11       
                      -1.144855951490496e-15                          111                                         3765.768612896979                   -3.8304683754400494e-07                -8.2314041586343025e-19             -1.6862784634374331e-17         7.790440517077029e-18             14.354149895712441                     16.836596377183554                       16.969963598526125              -1.286218845262751e-23     1.6332187063923397e-06  0                     1.6332187063923397e-06   0                     -1.3805894710770625e-15    2.4480587656605227e-16    20                            3                           2                     0.86286841942316383  0.49221012173253392 -0.052721228023632959    0.70272816956402206       0.58853323729257989      -0.34436771207855549           1.9537880968737985e-12              2.5917034341402073e-11       
                      -1.145540040551884e-15                          117                                         3594.1695973531123                  -3.2837551367868108e-07                -6.8408906138803356e-19             -1.7256951474807916e-17         7.9962683547980559e-18             13.756771714285142                     16.836596377183554                       16.969963598526125              -7.3537933281642289e-25     9.1230970671734054e-08  0                     9.1230970671734054e-08   0                     -1.3690360550503567e-15    2.3275669835386187e-16    21                            4                           2                     0.85564753440647279  0.50378953509554081 -0.036608427237391473    0.67349939249711177       0.63717543424547218      -0.31796567676741555           1.9351456818181681e-12              2.7852180023220244e-11       
                      -1.1460150438667182e-15                          123                                         3374.6407279345831                  -3.0446385627763313e-07                -4.7500331483431684e-19             -1.7416545422997856e-17         8.2107639444665682e-18             13.511063869766906                     16.836596377183554                       16.969963598526125              -6.7984241795979053e-26     8.3437013215672266e-09  0                     8.3437013215672266e-09   0                     -1.3625819897534259e-15    2.2577272743322314e-16    22                            5                           2                     0.85161374359589126  0.50924822791362112 -0.023973725513123077    0.65176376953450121       0.67243297246084477      -0.29333976632382275           1.5078785295794025e-12              2.9360058552799644e-11       
                      -1.1462081093979454e-15                          129                                         3273.3066978741331                  -2.9943381226561369e-07                -1.9306553122674252e-19             -1.7446856311182401e-17         8.3034322195019796e-18             13.425850040578657                     16.836596377183554                       16.969963598526125              -2.3777985657727862e-26     2.9103830456733613e-09  0                     2.9103830456733613e-09   0                     -1.3605436316837102e-15    2.2347894640122328e-16    23                            6                           2                     0.85033976980231885  0.51062835382348593 -0.018615382620522088    0.64293093285217306       0.68655039072162138      -0.28188725721798896           6.399414472003509e-13              3e-11                     
                      -1.1462081093979454e-15                          130                                         3273.3066978741331                  -2.9943381226561554e-07                 0                               -1.7446856311182401e-17         8.3034322195019796e-18             13.425850040578657                     13.425850040578657                       16.969963598526125              -2.3777985657727862e-26     2.9103830456733613e-09  0                     2.9103830456733613e-09   0                     -1.3605436316837102e-15    2.2347894640122328e-16    24                            0                           3                     0.85033976980231885  0.51062835382348593 -0.018615382620522088    0.64293093285217306       0.68655039072162138      -0.28188725721798896           0                                3e-11                     
                      -1.1467884127948426e-15                          136                                         3056.3541917407088                  -3.0298885609375778e-07                -5.8030339689749817e-19             -1.7407115312538911e-17         8.5398010380685916e-18             13.092279847858695                     13.425850040578657                       16.969963598526125              -8.4825456841186821e-28     1.0366101082219754e-10  0                     1.0366101082219754e-10   0                     -1.356947669129978e-15    2.1902657061045405e-16    25                            1                           3                     0.84809229320623647  0.51143539991786702 -0.0024585199167780803    0.61794234712081364       0.72579598481798502      -0.2438158911377962            1.9418470707689281e-12              3.1941847070768928e-11       
                      -1.1474105782533025e-15                          142                                         3352.6074380022947                  -3.3483384201983164e-07                -6.2216545845924758e-19             -1.717032739087965e-17         8.6327334826094274e-18             12.412451212326692                     13.425850040578657                       16.969963598526125              -2.3259783242951807e-29     2.8664941892349934e-12  0                     2.8664941892349934e-12   0                     -1.3572250198878499e-15    2.1835203554284079e-16    26                            2                           3                     0.84826563742990713  0.50714788055177185  0.013590564771853251    0.59603489893832795       0.75922186402861314      -0.20084148042854641           1.965270903897664e-12              3.3907117974666592e-11       
                      -1.1481170274821234e-15                          148                                         3580.8982758196125                  -3.9277007337422952e-07                -7.0644922882146253e-19             -1.6741751059680513e-17         8.5130882479297036e-18             11.171958877013108                     13.425850040578657                       16.969963598526125              -5.2230149339340382e-31     6.5561454767989517e-14  0                     6.5561454767989517e-14   0                     -1.3612002820684249e-15    2.2131191739805283e-16    27                            3                           3                     0.85075017629276639  0.49791212615108676  0.029060965891307848    0.57837487269415833       0.78528188208747851      -0.1546347391743795            1.9530276088700557e-12              3.586014558353665e-11       
                      -1.1489439778172974e-15                          154                                         3825.4787054343769                  -4.7185134422855706e-07                -8.2695033517349753e-19             -1.6132175326083013e-17         8.1981928666810452e-18             11.582944314542601                     13.425850040578657                       16.969963598526125              -1.0069777518446648e-32     1.2999968458809139e-15  0                     1.2999968458809139e-15   0                     -1.3683558978885901e-15    2.2734590253069461e-16    28                            4                           3                     0.8552224361803682   0.48412509376239593  0.043649314126334375    0.56566215252036611       0.80332028370100095      -0.10685817153855179           1.9202294444352041e-12              3.778037502797185e-11       
                      -1.149706760952039e-15                          160                                         3964.7922486900861                  -5.4584668457656693e-07                -7.6278313474188045e-19             -1.5525846071872547e-17         7.8712259234461103e-18             11.988642707649987                     13.425850040578657                       16.969963598526125              -3.9560000951151898e-34     5.2584963750555181e-17  0                     5.2584963750555181e-17   0                     -1.3758931407391514e-15    2.3384099993553881e-16    29                            5                           3                     0.85993321296196923  0.47019145457163458  0.054535708546163672    0.55927568383625026       0.81199095866753612      -0.068639869358820632           1.5012948294414125e-12              3.9281669857413262e-11       
                      -1.1501125190808581e-15                          166                                         4007.533201850591                   -5.8414502279057904e-07                -4.0575812881851594e-19             -1.5196134408485234e-17         7.7109257858912657e-18             12.104045661649273                     13.425850040578657                       16.969963598526125              -8.0243411738881319e-35     1.0842021724855138e-17  0                     1.0842021724855138e-17   0                     -1.3800181913921121e-15    2.37390880933848e-16    30                            6                           3                     0.8625113696200698   0.46257177498388247  0.059564229024636491    0.55738263110726505       0.81445425271670124      -0.050274957573560555           7.1833014258673578e-13              3.9999999999999998e-11       
                      -1.1501125190808581e-15                          167                                         4007.533201850591                   -5.8414502279058698e-07                 0                               -1.5196134408485234e-17         7.7109257858912657e-18             12.104045661649273                     12.104045661649273                       16.969963598526125              -8.0243411738881319e-35     1.0842021724855138e-17  0                     1.0842021724855138e-17   0                     -1.3800181913921121e-15    2.37390880933848e-16    31                            0                           4                     0.8625113696200698   0.46257177498388247  0.059564229024636491    0.55738263110726505       0.81445425271670124      -0.050274957573560555           0                                3.9999999999999998e-11       